Program Version,EnergyPlus, Version 8.8, YMD=2015.03.22 17:37
1,5,Environment Title[],Latitude[deg],Longitude[deg],Time Zone[],Elevation[m]
2,6,Day of Simulation[],Month[],Day of Month[],DST Indicator[1=yes 0=no],Hour[],StartMinute[],EndMinute[],DayType
3,3,Cumulative Day of Simulation[],Month[],Day of Month[],DST Indicator[1=yes 0=no],DayType  ! When Daily Meters Requested
4,2,Cumulative Days of Simulation[],Month[]  ! When Monthly Meters Requested
5,1,Cumulative Days of Simulation[] ! When Run Period Meters Requested
103,1,DistrictHeating:HVAC [J] !Hourly
134,1,DistrictCooling:HVAC [J] !Hourly
126,9,DistrictCooling:Facility [J] !Monthly  [Value,Min,Day,Hour,Minute,Max,Day,Hour,Minute]
95,9,DistrictHeating:Facility [J] !Monthly  [Value,Min,Day,Hour,Minute,Max,Day,Hour,Minute]
725,9,Carbon Equivalent:Facility [kg] !Monthly  [Value,Min,Day,Hour,Minute,Max,Day,Hour,Minute]
End of Data Dictionary
1,ANNUAL,  51.15,  -0.18,   0.00,  62.00
2,1, 1, 1, 0, 1, 0.00,60.00,Sunday         
103,2693643.55045246
134,0.0
2,1, 1, 1, 0, 2, 0.00,60.00,Sunday         
103,3138360.54299815
134,0.0
2,1, 1, 1, 0, 3, 0.00,60.00,Sunday         
103,3479042.72459813
134,0.0
2,1, 1, 1, 0, 4, 0.00,60.00,Sunday         
103,3666234.45952389
134,0.0
2,1, 1, 1, 0, 5, 0.00,60.00,Sunday         
103,3919811.37401345
134,0.0
2,1, 1, 1, 0, 6, 0.00,60.00,Sunday         
103,4035647.00093226
134,0.0
2,1, 1, 1, 0, 7, 0.00,60.00,Sunday         
103,3747934.25226561
134,0.0
2,1, 1, 1, 0, 8, 0.00,60.00,Sunday         
103,6860656.07040248
134,0.0
2,1, 1, 1, 0, 9, 0.00,60.00,Sunday         
103,4506846.06777979
134,0.0
2,1, 1, 1, 0,10, 0.00,60.00,Sunday         
103,3924212.68130951
134,0.0
2,1, 1, 1, 0,11, 0.00,60.00,Sunday         
103,3378648.89150037
134,0.0
2,1, 1, 1, 0,12, 0.00,60.00,Sunday         
103,2851899.21962054
134,0.0
2,1, 1, 1, 0,13, 0.00,60.00,Sunday         
103,2633104.91647322
134,0.0
2,1, 1, 1, 0,14, 0.00,60.00,Sunday         
103,2535021.54270858
134,0.0
2,1, 1, 1, 0,15, 0.00,60.00,Sunday         
103,2646660.29213174
134,0.0
2,1, 1, 1, 0,16, 0.00,60.00,Sunday         
103,2825980.2411881
134,0.0
2,1, 1, 1, 0,17, 0.00,60.00,Sunday         
103,3155643.739237
134,0.0
2,1, 1, 1, 0,18, 0.00,60.00,Sunday         
103,3445910.83834035
134,0.0
2,1, 1, 1, 0,19, 0.00,60.00,Sunday         
103,544809.803053664
134,0.0
2,1, 1, 1, 0,20, 0.00,60.00,Sunday         
103,1980998.590904
134,0.0
2,1, 1, 1, 0,21, 0.00,60.00,Sunday         
103,2506150.95636585
134,0.0
2,1, 1, 1, 0,22, 0.00,60.00,Sunday         
103,2657946.82829202
134,0.0
2,1, 1, 1, 0,23, 0.00,60.00,Sunday         
103,2664439.8738382
134,0.0
2,1, 1, 1, 0,24, 0.00,60.00,Sunday         
103,2504166.13725579
134,0.0
2,2, 1, 2, 0, 1, 0.00,60.00,Monday         
103,2218695.97359212
134,0.0
2,2, 1, 2, 0, 2, 0.00,60.00,Monday         
103,1932574.77848069
134,0.0
2,2, 1, 2, 0, 3, 0.00,60.00,Monday         
103,1790248.06106443
134,0.0
2,2, 1, 2, 0, 4, 0.00,60.00,Monday         
103,1771311.4752593
134,0.0
2,2, 1, 2, 0, 5, 0.00,60.00,Monday         
103,1659980.89809033
134,0.0
2,2, 1, 2, 0, 6, 0.00,60.00,Monday         
103,1604621.38867053
134,0.0
2,2, 1, 2, 0, 7, 0.00,60.00,Monday         
103,1380462.16415421
134,0.0
2,2, 1, 2, 0, 8, 0.00,60.00,Monday         
103,5192837.51750182
134,0.0
2,2, 1, 2, 0, 9, 0.00,60.00,Monday         
103,2623869.66934582
134,0.0
2,2, 1, 2, 0,10, 0.00,60.00,Monday         
103,2155325.98862353
134,0.0
2,2, 1, 2, 0,11, 0.00,60.00,Monday         
103,2067292.40820373
134,0.0
2,2, 1, 2, 0,12, 0.00,60.00,Monday         
103,2100372.65773972
134,0.0
2,2, 1, 2, 0,13, 0.00,60.00,Monday         
103,2001427.39834866
134,0.0
2,2, 1, 2, 0,14, 0.00,60.00,Monday         
103,1845088.95287951
134,0.0
2,2, 1, 2, 0,15, 0.00,60.00,Monday         
103,1763635.90474927
134,0.0
2,2, 1, 2, 0,16, 0.00,60.00,Monday         
103,1917848.68978009
134,0.0
2,2, 1, 2, 0,17, 0.00,60.00,Monday         
103,2267933.23978802
134,0.0
2,2, 1, 2, 0,18, 0.00,60.00,Monday         
103,2449514.13475968
134,0.0
2,2, 1, 2, 0,19, 0.00,60.00,Monday         
103,146865.20899812
134,0.0
2,2, 1, 2, 0,20, 0.00,60.00,Monday         
103,1259891.55028134
134,0.0
2,2, 1, 2, 0,21, 0.00,60.00,Monday         
103,1850853.63147033
134,0.0
2,2, 1, 2, 0,22, 0.00,60.00,Monday         
103,2115682.05596434
134,0.0
2,2, 1, 2, 0,23, 0.00,60.00,Monday         
103,2374973.85317391
134,0.0
2,2, 1, 2, 0,24, 0.00,60.00,Monday         
103,2297898.80586098
134,0.0
2,3, 1, 3, 0, 1, 0.00,60.00,Tuesday        
103,2323466.69422377
134,0.0
2,3, 1, 3, 0, 2, 0.00,60.00,Tuesday        
103,2451093.30459194
134,0.0
2,3, 1, 3, 0, 3, 0.00,60.00,Tuesday        
103,2721217.60056364
134,0.0
2,3, 1, 3, 0, 4, 0.00,60.00,Tuesday        
103,2783931.30150841
134,0.0
2,3, 1, 3, 0, 5, 0.00,60.00,Tuesday        
103,2673706.9462508
134,0.0
2,3, 1, 3, 0, 6, 0.00,60.00,Tuesday        
103,2674273.44332952
134,0.0
2,3, 1, 3, 0, 7, 0.00,60.00,Tuesday        
103,2433212.91630687
134,0.0
2,3, 1, 3, 0, 8, 0.00,60.00,Tuesday        
103,6143805.05376793
134,0.0
2,3, 1, 3, 0, 9, 0.00,60.00,Tuesday        
103,3425816.09514895
134,0.0
2,3, 1, 3, 0,10, 0.00,60.00,Tuesday        
103,2820871.13915082
134,0.0
2,3, 1, 3, 0,11, 0.00,60.00,Tuesday        
103,2438083.57574284
134,0.0
2,3, 1, 3, 0,12, 0.00,60.00,Tuesday        
103,2147950.63678665
134,0.0
2,3, 1, 3, 0,13, 0.00,60.00,Tuesday        
103,2010633.51739305
134,0.0
2,3, 1, 3, 0,14, 0.00,60.00,Tuesday        
103,1986646.14193465
134,0.0
2,3, 1, 3, 0,15, 0.00,60.00,Tuesday        
103,2069507.18649857
134,0.0
2,3, 1, 3, 0,16, 0.00,60.00,Tuesday        
103,2236513.06560875
134,0.0
2,3, 1, 3, 0,17, 0.00,60.00,Tuesday        
103,2394874.82961279
134,0.0
2,3, 1, 3, 0,18, 0.00,60.00,Tuesday        
103,2622711.46055502
134,0.0
2,3, 1, 3, 0,19, 0.00,60.00,Tuesday        
103,316897.780731965
134,0.0
2,3, 1, 3, 0,20, 0.00,60.00,Tuesday        
103,1790712.61224656
134,0.0
2,3, 1, 3, 0,21, 0.00,60.00,Tuesday        
103,2403596.34597576
134,0.0
2,3, 1, 3, 0,22, 0.00,60.00,Tuesday        
103,2717057.69787669
134,0.0
2,3, 1, 3, 0,23, 0.00,60.00,Tuesday        
103,3039020.49483805
134,0.0
2,3, 1, 3, 0,24, 0.00,60.00,Tuesday        
103,2972999.39230524
134,0.0
2,4, 1, 4, 0, 1, 0.00,60.00,Wednesday      
103,3024821.02942953
134,0.0
2,4, 1, 4, 0, 2, 0.00,60.00,Wednesday      
103,3039781.94175385
134,0.0
2,4, 1, 4, 0, 3, 0.00,60.00,Wednesday      
103,2927379.44482813
134,0.0
2,4, 1, 4, 0, 4, 0.00,60.00,Wednesday      
103,3025236.55033186
134,0.0
2,4, 1, 4, 0, 5, 0.00,60.00,Wednesday      
103,3246887.42943648
134,0.0
2,4, 1, 4, 0, 6, 0.00,60.00,Wednesday      
103,3365370.61961654
134,0.0
2,4, 1, 4, 0, 7, 0.00,60.00,Wednesday      
103,3118104.95981957
134,0.0
2,4, 1, 4, 0, 8, 0.00,60.00,Wednesday      
103,6390904.7680522
134,0.0
2,4, 1, 4, 0, 9, 0.00,60.00,Wednesday      
103,4141020.79363502
134,0.0
2,4, 1, 4, 0,10, 0.00,60.00,Wednesday      
103,3346080.15741152
134,0.0
2,4, 1, 4, 0,11, 0.00,60.00,Wednesday      
103,3052059.77969698
134,0.0
2,4, 1, 4, 0,12, 0.00,60.00,Wednesday      
103,2969751.41195487
134,0.0
2,4, 1, 4, 0,13, 0.00,60.00,Wednesday      
103,2682120.94688273
134,0.0
2,4, 1, 4, 0,14, 0.00,60.00,Wednesday      
103,2520942.45322304
134,0.0
2,4, 1, 4, 0,15, 0.00,60.00,Wednesday      
103,2486916.68714777
134,0.0
2,4, 1, 4, 0,16, 0.00,60.00,Wednesday      
103,2684803.20764379
134,0.0
2,4, 1, 4, 0,17, 0.00,60.00,Wednesday      
103,3027973.7296856
134,0.0
2,4, 1, 4, 0,18, 0.00,60.00,Wednesday      
103,3263551.03689664
134,0.0
2,4, 1, 4, 0,19, 0.00,60.00,Wednesday      
103,814084.331752241
134,0.0
2,4, 1, 4, 0,20, 0.00,60.00,Wednesday      
103,2334914.20838489
134,0.0
2,4, 1, 4, 0,21, 0.00,60.00,Wednesday      
103,2799619.41893907
134,0.0
2,4, 1, 4, 0,22, 0.00,60.00,Wednesday      
103,3009096.96903847
134,0.0
2,4, 1, 4, 0,23, 0.00,60.00,Wednesday      
103,3388073.82719072
134,0.0
2,4, 1, 4, 0,24, 0.00,60.00,Wednesday      
103,3402822.19735222
134,0.0
2,5, 1, 5, 0, 1, 0.00,60.00,Thursday       
103,3330341.10660451
134,0.0
2,5, 1, 5, 0, 2, 0.00,60.00,Thursday       
103,3156061.36153835
134,0.0
2,5, 1, 5, 0, 3, 0.00,60.00,Thursday       
103,2935728.20258902
134,0.0
2,5, 1, 5, 0, 4, 0.00,60.00,Thursday       
103,2887426.89452105
134,0.0
2,5, 1, 5, 0, 5, 0.00,60.00,Thursday       
103,2915272.16764415
134,0.0
2,5, 1, 5, 0, 6, 0.00,60.00,Thursday       
103,2857997.71710533
134,0.0
2,5, 1, 5, 0, 7, 0.00,60.00,Thursday       
103,2397463.47431078
134,0.0
2,5, 1, 5, 0, 8, 0.00,60.00,Thursday       
103,6283018.09500392
134,0.0
2,5, 1, 5, 0, 9, 0.00,60.00,Thursday       
103,3592914.2786476
134,0.0
2,5, 1, 5, 0,10, 0.00,60.00,Thursday       
103,3001943.3078654
134,0.0
2,5, 1, 5, 0,11, 0.00,60.00,Thursday       
103,2466555.69401437
134,0.0
2,5, 1, 5, 0,12, 0.00,60.00,Thursday       
103,2115284.13108894
134,0.0
2,5, 1, 5, 0,13, 0.00,60.00,Thursday       
103,1984378.77605135
134,0.0
2,5, 1, 5, 0,14, 0.00,60.00,Thursday       
103,1997729.34041565
134,0.0
2,5, 1, 5, 0,15, 0.00,60.00,Thursday       
103,2155702.4752218
134,0.0
2,5, 1, 5, 0,16, 0.00,60.00,Thursday       
103,2437740.32160296
134,0.0
2,5, 1, 5, 0,17, 0.00,60.00,Thursday       
103,3036123.27570336
134,0.0
2,5, 1, 5, 0,18, 0.00,60.00,Thursday       
103,3449352.02212339
134,0.0
2,5, 1, 5, 0,19, 0.00,60.00,Thursday       
103,779803.22501659
134,0.0
2,5, 1, 5, 0,20, 0.00,60.00,Thursday       
103,2165284.26716348
134,0.0
2,5, 1, 5, 0,21, 0.00,60.00,Thursday       
103,2559159.36910505
134,0.0
2,5, 1, 5, 0,22, 0.00,60.00,Thursday       
103,2783508.7418204
134,0.0
2,5, 1, 5, 0,23, 0.00,60.00,Thursday       
103,3507013.02198946
134,0.0
2,5, 1, 5, 0,24, 0.00,60.00,Thursday       
103,3533235.73049183
134,0.0
2,6, 1, 6, 0, 1, 0.00,60.00,Friday         
103,3568892.42573374
134,0.0
2,6, 1, 6, 0, 2, 0.00,60.00,Friday         
103,3513580.24731427
134,0.0
2,6, 1, 6, 0, 3, 0.00,60.00,Friday         
103,3492567.77184874
134,0.0
2,6, 1, 6, 0, 4, 0.00,60.00,Friday         
103,3504970.75198822
134,0.0
2,6, 1, 6, 0, 5, 0.00,60.00,Friday         
103,3480748.10959858
134,0.0
2,6, 1, 6, 0, 6, 0.00,60.00,Friday         
103,3452778.71090164
134,0.0
2,6, 1, 6, 0, 7, 0.00,60.00,Friday         
103,2917620.38377651
134,0.0
2,6, 1, 6, 0, 8, 0.00,60.00,Friday         
103,6339556.19703332
134,0.0
2,6, 1, 6, 0, 9, 0.00,60.00,Friday         
103,4122925.01073508
134,0.0
2,6, 1, 6, 0,10, 0.00,60.00,Friday         
103,3370271.36617961
134,0.0
2,6, 1, 6, 0,11, 0.00,60.00,Friday         
103,2874657.54548599
134,0.0
2,6, 1, 6, 0,12, 0.00,60.00,Friday         
103,2512711.87345654
134,0.0
2,6, 1, 6, 0,13, 0.00,60.00,Friday         
103,2292284.4627375
134,0.0
2,6, 1, 6, 0,14, 0.00,60.00,Friday         
103,2210687.13751138
134,0.0
2,6, 1, 6, 0,15, 0.00,60.00,Friday         
103,2546866.5822912
134,0.0
2,6, 1, 6, 0,16, 0.00,60.00,Friday         
103,2833109.30291075
134,0.0
2,6, 1, 6, 0,17, 0.00,60.00,Friday         
103,2834908.0194956
134,0.0
2,6, 1, 6, 0,18, 0.00,60.00,Friday         
103,2990829.35900939
134,0.0
2,6, 1, 6, 0,19, 0.00,60.00,Friday         
103,414563.217744091
134,0.0
2,6, 1, 6, 0,20, 0.00,60.00,Friday         
103,1630530.15329205
134,0.0
2,6, 1, 6, 0,21, 0.00,60.00,Friday         
103,1946724.91157608
134,0.0
2,6, 1, 6, 0,22, 0.00,60.00,Friday         
103,1999071.64354106
134,0.0
2,6, 1, 6, 0,23, 0.00,60.00,Friday         
103,2217821.7387689
134,0.0
2,6, 1, 6, 0,24, 0.00,60.00,Friday         
103,2330030.20138678
134,0.0
2,7, 1, 7, 0, 1, 0.00,60.00,Saturday       
103,2392857.06873199
134,0.0
2,7, 1, 7, 0, 2, 0.00,60.00,Saturday       
103,2443769.81280917
134,0.0
2,7, 1, 7, 0, 3, 0.00,60.00,Saturday       
103,2443410.87844126
134,0.0
2,7, 1, 7, 0, 4, 0.00,60.00,Saturday       
103,2442305.56629352
134,0.0
2,7, 1, 7, 0, 5, 0.00,60.00,Saturday       
103,2585466.84510843
134,0.0
2,7, 1, 7, 0, 6, 0.00,60.00,Saturday       
103,2699779.13398378
134,0.0
2,7, 1, 7, 0, 7, 0.00,60.00,Saturday       
103,2465548.35436687
134,0.0
2,7, 1, 7, 0, 8, 0.00,60.00,Saturday       
103,5899941.03359117
134,0.0
2,7, 1, 7, 0, 9, 0.00,60.00,Saturday       
103,3737983.30028483
134,0.0
2,7, 1, 7, 0,10, 0.00,60.00,Saturday       
103,3091165.30682769
134,0.0
2,7, 1, 7, 0,11, 0.00,60.00,Saturday       
103,2717444.2361738
134,0.0
2,7, 1, 7, 0,12, 0.00,60.00,Saturday       
103,2500094.83436203
134,0.0
2,7, 1, 7, 0,13, 0.00,60.00,Saturday       
103,2365346.09965643
134,0.0
2,7, 1, 7, 0,14, 0.00,60.00,Saturday       
103,2301001.00178624
134,0.0
2,7, 1, 7, 0,15, 0.00,60.00,Saturday       
103,2579333.73113353
134,0.0
2,7, 1, 7, 0,16, 0.00,60.00,Saturday       
103,2834900.56733891
134,0.0
2,7, 1, 7, 0,17, 0.00,60.00,Saturday       
103,3101498.92065628
134,0.0
2,7, 1, 7, 0,18, 0.00,60.00,Saturday       
103,3331029.25849691
134,0.0
2,7, 1, 7, 0,19, 0.00,60.00,Saturday       
103,824078.770195554
134,0.0
2,7, 1, 7, 0,20, 0.00,60.00,Saturday       
103,2172666.48883922
134,0.0
2,7, 1, 7, 0,21, 0.00,60.00,Saturday       
103,2564899.28086593
134,0.0
2,7, 1, 7, 0,22, 0.00,60.00,Saturday       
103,2639010.22495274
134,0.0
2,7, 1, 7, 0,23, 0.00,60.00,Saturday       
103,2647065.75210649
134,0.0
2,7, 1, 7, 0,24, 0.00,60.00,Saturday       
103,2662488.2454768
134,0.0
2,8, 1, 8, 0, 1, 0.00,60.00,Sunday         
103,2665458.23834065
134,0.0
2,8, 1, 8, 0, 2, 0.00,60.00,Sunday         
103,2783690.86557308
134,0.0
2,8, 1, 8, 0, 3, 0.00,60.00,Sunday         
103,2986245.60599845
134,0.0
2,8, 1, 8, 0, 4, 0.00,60.00,Sunday         
103,3016068.80452247
134,0.0
2,8, 1, 8, 0, 5, 0.00,60.00,Sunday         
103,2939049.9341413
134,0.0
2,8, 1, 8, 0, 6, 0.00,60.00,Sunday         
103,2944492.50179896
134,0.0
2,8, 1, 8, 0, 7, 0.00,60.00,Sunday         
103,2938415.63131757
134,0.0
2,8, 1, 8, 0, 8, 0.00,60.00,Sunday         
103,6241377.37616111
134,0.0
2,8, 1, 8, 0, 9, 0.00,60.00,Sunday         
103,3919665.23486927
134,0.0
2,8, 1, 8, 0,10, 0.00,60.00,Sunday         
103,3268833.09933949
134,0.0
2,8, 1, 8, 0,11, 0.00,60.00,Sunday         
103,3314256.23539056
134,0.0
2,8, 1, 8, 0,12, 0.00,60.00,Sunday         
103,3493850.45514757
134,0.0
2,8, 1, 8, 0,13, 0.00,60.00,Sunday         
103,3521177.95094875
134,0.0
2,8, 1, 8, 0,14, 0.00,60.00,Sunday         
103,3585852.06006569
134,0.0
2,8, 1, 8, 0,15, 0.00,60.00,Sunday         
103,3545383.13700608
134,0.0
2,8, 1, 8, 0,16, 0.00,60.00,Sunday         
103,3504582.91699231
134,0.0
2,8, 1, 8, 0,17, 0.00,60.00,Sunday         
103,3524540.5749468
134,0.0
2,8, 1, 8, 0,18, 0.00,60.00,Sunday         
103,3465354.06205143
134,0.0
2,8, 1, 8, 0,19, 0.00,60.00,Sunday         
103,462191.606024747
134,0.0
2,8, 1, 8, 0,20, 0.00,60.00,Sunday         
103,1813867.08812757
134,0.0
2,8, 1, 8, 0,21, 0.00,60.00,Sunday         
103,2340976.87517458
134,0.0
2,8, 1, 8, 0,22, 0.00,60.00,Sunday         
103,2684014.17952967
134,0.0
2,8, 1, 8, 0,23, 0.00,60.00,Sunday         
103,2885697.45753499
134,0.0
2,8, 1, 8, 0,24, 0.00,60.00,Sunday         
103,3032403.95157611
134,0.0
2,9, 1, 9, 0, 1, 0.00,60.00,Monday         
103,3131792.6471421
134,0.0
2,9, 1, 9, 0, 2, 0.00,60.00,Monday         
103,3142791.573013
134,0.0
2,9, 1, 9, 0, 3, 0.00,60.00,Monday         
103,3167897.74501767
134,0.0
2,9, 1, 9, 0, 4, 0.00,60.00,Monday         
103,3136619.61763297
134,0.0
2,9, 1, 9, 0, 5, 0.00,60.00,Monday         
103,3241426.85349296
134,0.0
2,9, 1, 9, 0, 6, 0.00,60.00,Monday         
103,3242106.27210277
134,0.0
2,9, 1, 9, 0, 7, 0.00,60.00,Monday         
103,2795638.32265587
134,0.0
2,9, 1, 9, 0, 8, 0.00,60.00,Monday         
103,5944665.49182334
134,0.0
2,9, 1, 9, 0, 9, 0.00,60.00,Monday         
103,3751120.07777869
134,0.0
2,9, 1, 9, 0,10, 0.00,60.00,Monday         
103,3127967.58094889
134,0.0
2,9, 1, 9, 0,11, 0.00,60.00,Monday         
103,2632334.47771619
134,0.0
2,9, 1, 9, 0,12, 0.00,60.00,Monday         
103,2215457.17089823
134,0.0
2,9, 1, 9, 0,13, 0.00,60.00,Monday         
103,1883609.6798205
134,0.0
2,9, 1, 9, 0,14, 0.00,60.00,Monday         
103,1776995.89004934
134,0.0
2,9, 1, 9, 0,15, 0.00,60.00,Monday         
103,1850331.98698446
134,0.0
2,9, 1, 9, 0,16, 0.00,60.00,Monday         
103,2030981.84825855
134,0.0
2,9, 1, 9, 0,17, 0.00,60.00,Monday         
103,2208701.8600802
134,0.0
2,9, 1, 9, 0,18, 0.00,60.00,Monday         
103,2464804.81400376
134,0.0
2,9, 1, 9, 0,19, 0.00,60.00,Monday         
103,128800.725990377
134,0.0
2,9, 1, 9, 0,20, 0.00,60.00,Monday         
103,1247038.61812467
134,0.0
2,9, 1, 9, 0,21, 0.00,60.00,Monday         
103,1744481.13592845
134,0.0
2,9, 1, 9, 0,22, 0.00,60.00,Monday         
103,1871103.01333958
134,0.0
2,9, 1, 9, 0,23, 0.00,60.00,Monday         
103,2331850.64994209
134,0.0
2,9, 1, 9, 0,24, 0.00,60.00,Monday         
103,2298145.48506306
134,0.0
2,10, 1,10, 0, 1, 0.00,60.00,Tuesday        
103,2141033.13029
134,0.0
2,10, 1,10, 0, 2, 0.00,60.00,Tuesday        
103,1977264.38091924
134,0.0
2,10, 1,10, 0, 3, 0.00,60.00,Tuesday        
103,1889310.52258043
134,0.0
2,10, 1,10, 0, 4, 0.00,60.00,Tuesday        
103,1974300.78319539
134,0.0
2,10, 1,10, 0, 5, 0.00,60.00,Tuesday        
103,2156624.99175867
134,0.0
2,10, 1,10, 0, 6, 0.00,60.00,Tuesday        
103,2177838.79817866
134,0.0
2,10, 1,10, 0, 7, 0.00,60.00,Tuesday        
103,1945048.27434566
134,0.0
2,10, 1,10, 0, 8, 0.00,60.00,Tuesday        
103,5833273.20094256
134,0.0
2,10, 1,10, 0, 9, 0.00,60.00,Tuesday        
103,3213436.37121594
134,0.0
2,10, 1,10, 0,10, 0.00,60.00,Tuesday        
103,2691382.38435881
134,0.0
2,10, 1,10, 0,11, 0.00,60.00,Tuesday        
103,2331942.93193179
134,0.0
2,10, 1,10, 0,12, 0.00,60.00,Tuesday        
103,2090826.83810704
134,0.0
2,10, 1,10, 0,13, 0.00,60.00,Tuesday        
103,2075295.35307125
134,0.0
2,10, 1,10, 0,14, 0.00,60.00,Tuesday        
103,2150517.42673077
134,0.0
2,10, 1,10, 0,15, 0.00,60.00,Tuesday        
103,2263950.50566339
134,0.0
2,10, 1,10, 0,16, 0.00,60.00,Tuesday        
103,2492034.36528225
134,0.0
2,10, 1,10, 0,17, 0.00,60.00,Tuesday        
103,2742241.01132735
134,0.0
2,10, 1,10, 0,18, 0.00,60.00,Tuesday        
103,2900213.67270035
134,0.0
2,10, 1,10, 0,19, 0.00,60.00,Tuesday        
103,409246.530725046
134,0.0
2,10, 1,10, 0,20, 0.00,60.00,Tuesday        
103,1560347.53116278
134,0.0
2,10, 1,10, 0,21, 0.00,60.00,Tuesday        
103,2053920.40580068
134,0.0
2,10, 1,10, 0,22, 0.00,60.00,Tuesday        
103,2281653.25622838
134,0.0
2,10, 1,10, 0,23, 0.00,60.00,Tuesday        
103,2731249.91522022
134,0.0
2,10, 1,10, 0,24, 0.00,60.00,Tuesday        
103,2920339.7159212
134,0.0
2,11, 1,11, 0, 1, 0.00,60.00,Wednesday      
103,2977099.37342699
134,0.0
2,11, 1,11, 0, 2, 0.00,60.00,Wednesday      
103,2969830.93218629
134,0.0
2,11, 1,11, 0, 3, 0.00,60.00,Wednesday      
103,2909770.60127506
134,0.0
2,11, 1,11, 0, 4, 0.00,60.00,Wednesday      
103,2843754.12108648
134,0.0
2,11, 1,11, 0, 5, 0.00,60.00,Wednesday      
103,2739928.0504103
134,0.0
2,11, 1,11, 0, 6, 0.00,60.00,Wednesday      
103,2639920.27017754
134,0.0
2,11, 1,11, 0, 7, 0.00,60.00,Wednesday      
103,2322631.35905904
134,0.0
2,11, 1,11, 0, 8, 0.00,60.00,Wednesday      
103,6253251.65439384
134,0.0
2,11, 1,11, 0, 9, 0.00,60.00,Wednesday      
103,3815853.08516775
134,0.0
2,11, 1,11, 0,10, 0.00,60.00,Wednesday      
103,3237237.44929167
134,0.0
2,11, 1,11, 0,11, 0.00,60.00,Wednesday      
103,3018230.18123262
134,0.0
2,11, 1,11, 0,12, 0.00,60.00,Wednesday      
103,2996853.25257906
134,0.0
2,11, 1,11, 0,13, 0.00,60.00,Wednesday      
103,2714031.34723965
134,0.0
2,11, 1,11, 0,14, 0.00,60.00,Wednesday      
103,2527434.80838618
134,0.0
2,11, 1,11, 0,15, 0.00,60.00,Wednesday      
103,2566132.28843699
134,0.0
2,11, 1,11, 0,16, 0.00,60.00,Wednesday      
103,2701693.35936378
134,0.0
2,11, 1,11, 0,17, 0.00,60.00,Wednesday      
103,3037781.18498098
134,0.0
2,11, 1,11, 0,18, 0.00,60.00,Wednesday      
103,3277106.48474683
134,0.0
2,11, 1,11, 0,19, 0.00,60.00,Wednesday      
103,699337.719849235
134,0.0
2,11, 1,11, 0,20, 0.00,60.00,Wednesday      
103,2103793.85076495
134,0.0
2,11, 1,11, 0,21, 0.00,60.00,Wednesday      
103,2576196.62046616
134,0.0
2,11, 1,11, 0,22, 0.00,60.00,Wednesday      
103,2799913.05888254
134,0.0
2,11, 1,11, 0,23, 0.00,60.00,Wednesday      
103,3040662.37082333
134,0.0
2,11, 1,11, 0,24, 0.00,60.00,Wednesday      
103,3332236.47509347
134,0.0
2,12, 1,12, 0, 1, 0.00,60.00,Thursday       
103,3386683.63604993
134,0.0
2,12, 1,12, 0, 2, 0.00,60.00,Thursday       
103,3265754.96855846
134,0.0
2,12, 1,12, 0, 3, 0.00,60.00,Thursday       
103,3213357.15893736
134,0.0
2,12, 1,12, 0, 4, 0.00,60.00,Thursday       
103,3234649.2785838
134,0.0
2,12, 1,12, 0, 5, 0.00,60.00,Thursday       
103,3353697.26014181
134,0.0
2,12, 1,12, 0, 6, 0.00,60.00,Thursday       
103,3280863.22492162
134,0.0
2,12, 1,12, 0, 7, 0.00,60.00,Thursday       
103,3188973.52625288
134,0.0
2,12, 1,12, 0, 8, 0.00,60.00,Thursday       
103,6661763.97885711
134,0.0
2,12, 1,12, 0, 9, 0.00,60.00,Thursday       
103,4432498.52851137
134,0.0
2,12, 1,12, 0,10, 0.00,60.00,Thursday       
103,3841774.69013624
134,0.0
2,12, 1,12, 0,11, 0.00,60.00,Thursday       
103,3359695.1015094
134,0.0
2,12, 1,12, 0,12, 0.00,60.00,Thursday       
103,2867369.00280403
134,0.0
2,12, 1,12, 0,13, 0.00,60.00,Thursday       
103,2446603.24128275
134,0.0
2,12, 1,12, 0,14, 0.00,60.00,Thursday       
103,2298886.48242021
134,0.0
2,12, 1,12, 0,15, 0.00,60.00,Thursday       
103,2413135.62827881
134,0.0
2,12, 1,12, 0,16, 0.00,60.00,Thursday       
103,2611567.85999871
134,0.0
2,12, 1,12, 0,17, 0.00,60.00,Thursday       
103,2895193.498521
134,0.0
2,12, 1,12, 0,18, 0.00,60.00,Thursday       
103,3142306.81043958
134,0.0
2,12, 1,12, 0,19, 0.00,60.00,Thursday       
103,670872.219344869
134,0.0
2,12, 1,12, 0,20, 0.00,60.00,Thursday       
103,1990898.89139946
134,0.0
2,12, 1,12, 0,21, 0.00,60.00,Thursday       
103,2436789.32900493
134,0.0
2,12, 1,12, 0,22, 0.00,60.00,Thursday       
103,2722953.23421382
134,0.0
2,12, 1,12, 0,23, 0.00,60.00,Thursday       
103,3150080.84891171
134,0.0
2,12, 1,12, 0,24, 0.00,60.00,Thursday       
103,3285308.62382477
134,0.0
2,13, 1,13, 0, 1, 0.00,60.00,Friday         
103,3451018.10462141
134,0.0
2,13, 1,13, 0, 2, 0.00,60.00,Friday         
103,3611656.57607303
134,0.0
2,13, 1,13, 0, 3, 0.00,60.00,Friday         
103,3694406.31956631
134,0.0
2,13, 1,13, 0, 4, 0.00,60.00,Friday         
103,3773734.98831142
134,0.0
2,13, 1,13, 0, 5, 0.00,60.00,Friday         
103,3813167.37041071
134,0.0
2,13, 1,13, 0, 6, 0.00,60.00,Friday         
103,3862217.63080145
134,0.0
2,13, 1,13, 0, 7, 0.00,60.00,Friday         
103,3745774.10794406
134,0.0
2,13, 1,13, 0, 8, 0.00,60.00,Friday         
103,7089708.30130504
134,0.0
2,13, 1,13, 0, 9, 0.00,60.00,Friday         
103,4717839.05554975
134,0.0
2,13, 1,13, 0,10, 0.00,60.00,Friday         
103,3993508.62287952
134,0.0
2,13, 1,13, 0,11, 0.00,60.00,Friday         
103,3539178.04612371
134,0.0
2,13, 1,13, 0,12, 0.00,60.00,Friday         
103,3194606.17407506
134,0.0
2,13, 1,13, 0,13, 0.00,60.00,Friday         
103,2950428.3945628
134,0.0
2,13, 1,13, 0,14, 0.00,60.00,Friday         
103,2794563.031524
134,0.0
2,13, 1,13, 0,15, 0.00,60.00,Friday         
103,2778897.06274179
134,0.0
2,13, 1,13, 0,16, 0.00,60.00,Friday         
103,2932980.27181809
134,0.0
2,13, 1,13, 0,17, 0.00,60.00,Friday         
103,3220986.74867013
134,0.0
2,13, 1,13, 0,18, 0.00,60.00,Friday         
103,3471082.51877599
134,0.0
2,13, 1,13, 0,19, 0.00,60.00,Friday         
103,1067556.86436591
134,0.0
2,13, 1,13, 0,20, 0.00,60.00,Friday         
103,2647892.77690769
134,0.0
2,13, 1,13, 0,21, 0.00,60.00,Friday         
103,3161926.4184279
134,0.0
2,13, 1,13, 0,22, 0.00,60.00,Friday         
103,3468057.08807671
134,0.0
2,13, 1,13, 0,23, 0.00,60.00,Friday         
103,3739144.68482993
134,0.0
2,13, 1,13, 0,24, 0.00,60.00,Friday         
103,3822010.14582896
134,0.0
2,14, 1,14, 0, 1, 0.00,60.00,Saturday       
103,3932661.48962986
134,0.0
2,14, 1,14, 0, 2, 0.00,60.00,Saturday       
103,3903670.14209588
134,0.0
2,14, 1,14, 0, 3, 0.00,60.00,Saturday       
103,3968786.61610034
134,0.0
2,14, 1,14, 0, 4, 0.00,60.00,Saturday       
103,3845725.67710773
134,0.0
2,14, 1,14, 0, 5, 0.00,60.00,Saturday       
103,3554633.74385266
134,0.0
2,14, 1,14, 0, 6, 0.00,60.00,Saturday       
103,3499005.0951408
134,0.0
2,14, 1,14, 0, 7, 0.00,60.00,Saturday       
103,3720943.89235879
134,0.0
2,14, 1,14, 0, 8, 0.00,60.00,Saturday       
103,7314985.33485995
134,0.0
2,14, 1,14, 0, 9, 0.00,60.00,Saturday       
103,4816884.06281353
134,0.0
2,14, 1,14, 0,10, 0.00,60.00,Saturday       
103,3858632.50885508
134,0.0
2,14, 1,14, 0,11, 0.00,60.00,Saturday       
103,3348337.20096378
134,0.0
2,14, 1,14, 0,12, 0.00,60.00,Saturday       
103,3064832.58126487
134,0.0
2,14, 1,14, 0,13, 0.00,60.00,Saturday       
103,2905952.51233065
134,0.0
2,14, 1,14, 0,14, 0.00,60.00,Saturday       
103,2872748.69541979
134,0.0
2,14, 1,14, 0,15, 0.00,60.00,Saturday       
103,2913369.4610032
134,0.0
2,14, 1,14, 0,16, 0.00,60.00,Saturday       
103,3118418.92094223
134,0.0
2,14, 1,14, 0,17, 0.00,60.00,Saturday       
103,3477203.02625264
134,0.0
2,14, 1,14, 0,18, 0.00,60.00,Saturday       
103,3741195.62738146
134,0.0
2,14, 1,14, 0,19, 0.00,60.00,Saturday       
103,1592577.92325646
134,0.0
2,14, 1,14, 0,20, 0.00,60.00,Saturday       
103,3265605.74407726
134,0.0
2,14, 1,14, 0,21, 0.00,60.00,Saturday       
103,3449182.25318382
134,0.0
2,14, 1,14, 0,22, 0.00,60.00,Saturday       
103,3535814.53081492
134,0.0
2,14, 1,14, 0,23, 0.00,60.00,Saturday       
103,3805098.04439064
134,0.0
2,14, 1,14, 0,24, 0.00,60.00,Saturday       
103,3913632.85605713
134,0.0
2,15, 1,15, 0, 1, 0.00,60.00,Sunday         
103,3843048.48207639
134,0.0
2,15, 1,15, 0, 2, 0.00,60.00,Sunday         
103,3817221.59094263
134,0.0
2,15, 1,15, 0, 3, 0.00,60.00,Sunday         
103,3892257.03540656
134,0.0
2,15, 1,15, 0, 4, 0.00,60.00,Sunday         
103,3781078.10903398
134,0.0
2,15, 1,15, 0, 5, 0.00,60.00,Sunday         
103,3803044.40241142
134,0.0
2,15, 1,15, 0, 6, 0.00,60.00,Sunday         
103,3953068.47639326
134,0.0
2,15, 1,15, 0, 7, 0.00,60.00,Sunday         
103,4020847.20777858
134,0.0
2,15, 1,15, 0, 8, 0.00,60.00,Sunday         
103,7515746.50184197
134,0.0
2,15, 1,15, 0, 9, 0.00,60.00,Sunday         
103,5265812.18078664
134,0.0
2,15, 1,15, 0,10, 0.00,60.00,Sunday         
103,4547952.17856752
134,0.0
2,15, 1,15, 0,11, 0.00,60.00,Sunday         
103,4031726.29609696
134,0.0
2,15, 1,15, 0,12, 0.00,60.00,Sunday         
103,3668001.20727654
134,0.0
2,15, 1,15, 0,13, 0.00,60.00,Sunday         
103,3398795.22562048
134,0.0
2,15, 1,15, 0,14, 0.00,60.00,Sunday         
103,3273272.14254358
134,0.0
2,15, 1,15, 0,15, 0.00,60.00,Sunday         
103,3202787.71067557
134,0.0
2,15, 1,15, 0,16, 0.00,60.00,Sunday         
103,3314673.35394034
134,0.0
2,15, 1,15, 0,17, 0.00,60.00,Sunday         
103,3629233.63198973
134,0.0
2,15, 1,15, 0,18, 0.00,60.00,Sunday         
103,3854673.03457386
134,0.0
2,15, 1,15, 0,19, 0.00,60.00,Sunday         
103,1207263.86411069
134,0.0
2,15, 1,15, 0,20, 0.00,60.00,Sunday         
103,2910271.36343903
134,0.0
2,15, 1,15, 0,21, 0.00,60.00,Sunday         
103,3466534.84279696
134,0.0
2,15, 1,15, 0,22, 0.00,60.00,Sunday         
103,3695686.45944357
134,0.0
2,15, 1,15, 0,23, 0.00,60.00,Sunday         
103,3666322.75929874
134,0.0
2,15, 1,15, 0,24, 0.00,60.00,Sunday         
103,3754823.30984625
134,0.0
2,16, 1,16, 0, 1, 0.00,60.00,Monday         
103,3888613.86519248
134,0.0
2,16, 1,16, 0, 2, 0.00,60.00,Monday         
103,3867134.36282671
134,0.0
2,16, 1,16, 0, 3, 0.00,60.00,Monday         
103,3988489.12634479
134,0.0
2,16, 1,16, 0, 4, 0.00,60.00,Monday         
103,4081639.95197399
134,0.0
2,16, 1,16, 0, 5, 0.00,60.00,Monday         
103,3983461.42522988
134,0.0
2,16, 1,16, 0, 6, 0.00,60.00,Monday         
103,3947100.19999639
134,0.0
2,16, 1,16, 0, 7, 0.00,60.00,Monday         
103,3811217.55637628
134,0.0
2,16, 1,16, 0, 8, 0.00,60.00,Monday         
103,7233336.31299244
134,0.0
2,16, 1,16, 0, 9, 0.00,60.00,Monday         
103,4860202.55147041
134,0.0
2,16, 1,16, 0,10, 0.00,60.00,Monday         
103,4035214.87110955
134,0.0
2,16, 1,16, 0,11, 0.00,60.00,Monday         
103,3471398.81405534
134,0.0
2,16, 1,16, 0,12, 0.00,60.00,Monday         
103,3084078.32163331
134,0.0
2,16, 1,16, 0,13, 0.00,60.00,Monday         
103,2703803.90212414
134,0.0
2,16, 1,16, 0,14, 0.00,60.00,Monday         
103,2426062.90162789
134,0.0
2,16, 1,16, 0,15, 0.00,60.00,Monday         
103,2396566.81987505
134,0.0
2,16, 1,16, 0,16, 0.00,60.00,Monday         
103,2581766.12505311
134,0.0
2,16, 1,16, 0,17, 0.00,60.00,Monday         
103,2950384.95666058
134,0.0
2,16, 1,16, 0,18, 0.00,60.00,Monday         
103,3329372.07219438
134,0.0
2,16, 1,16, 0,19, 0.00,60.00,Monday         
103,952738.169660335
134,0.0
2,16, 1,16, 0,20, 0.00,60.00,Monday         
103,2491554.7846968
134,0.0
2,16, 1,16, 0,21, 0.00,60.00,Monday         
103,2887940.44700281
134,0.0
2,16, 1,16, 0,22, 0.00,60.00,Monday         
103,2968457.2698636
134,0.0
2,16, 1,16, 0,23, 0.00,60.00,Monday         
103,3256701.62530185
134,0.0
2,16, 1,16, 0,24, 0.00,60.00,Monday         
103,3166682.60049009
134,0.0
2,17, 1,17, 0, 1, 0.00,60.00,Tuesday        
103,3107611.73295745
134,0.0
2,17, 1,17, 0, 2, 0.00,60.00,Tuesday        
103,3093427.19700191
134,0.0
2,17, 1,17, 0, 3, 0.00,60.00,Tuesday        
103,2956268.34691657
134,0.0
2,17, 1,17, 0, 4, 0.00,60.00,Tuesday        
103,2815440.15215013
134,0.0
2,17, 1,17, 0, 5, 0.00,60.00,Tuesday        
103,2804551.8176237
134,0.0
2,17, 1,17, 0, 6, 0.00,60.00,Tuesday        
103,2841125.61731054
134,0.0
2,17, 1,17, 0, 7, 0.00,60.00,Tuesday        
103,2561700.68143759
134,0.0
2,17, 1,17, 0, 8, 0.00,60.00,Tuesday        
103,5855477.56889131
134,0.0
2,17, 1,17, 0, 9, 0.00,60.00,Tuesday        
103,3607888.26140324
134,0.0
2,17, 1,17, 0,10, 0.00,60.00,Tuesday        
103,3210851.61871791
134,0.0
2,17, 1,17, 0,11, 0.00,60.00,Tuesday        
103,3121719.29247819
134,0.0
2,17, 1,17, 0,12, 0.00,60.00,Tuesday        
103,3030256.43965916
134,0.0