Program Version,EnergyPlus, Version 8.8, YMD=2015.03.22 17:37
1,5,Environment Title[],Latitude[deg],Longitude[deg],Time Zone[],Elevation[m]
2,6,Day of Simulation[],Month[],Day of Month[],DST Indicator[1=yes 0=no],Hour[],StartMinute[],EndMinute[],DayType
3,3,Cumulative Day of Simulation[],Month[],Day of Month[],DST Indicator[1=yes 0=no],DayType  ! When Daily Report Variables Requested
4,2,Cumulative Days of Simulation[],Month[]  ! When Monthly Report Variables Requested
5,1,Cumulative Days of Simulation[] ! When Run Period Report Variables Requested
10,1,ZONE1,Zone Opaque Surface Inside Faces Total Conduction Heat Gain Energy [J] !Hourly
11,1,ZONE1,Zone Opaque Surface Inside Faces Total Conduction Heat Loss Energy [J] !Hourly
87,1,ZONE1,Zone Thermostat Air Temperature [C] !Hourly
90,1,ZONE1,Zone Thermal Comfort ASHRAE 55 Simple Model Summer or Winter Clothes Not Comfortable Time [hr] !Hourly
153,1,BLOCK1:ZONE1 IDEAL LOADS AIR SYSTEM,Zone Ideal Loads Supply Air Total Heating Rate [W] !Hourly
154,1,BLOCK1:ZONE1 IDEAL LOADS AIR SYSTEM,Zone Ideal Loads Supply Air Total Cooling Rate [W] !Hourly
103,1,DistrictHeating:HVAC [J] !Hourly
134,1,DistrictCooling:HVAC [J] !Hourly
End of Data Dictionary
1,ANNUAL,  51.15,  -0.18,   0.00,  62.00
2,1, 1, 1, 0, 1, 0.00,60.00,Sunday         
10,0.0
11,317004.393345841
90,0.0
87,18.
153,748.234319570129
154,0.0
103,2693643.55045246
134,0.0
2,1, 1, 1, 0, 2, 0.00,60.00,Sunday         
10,0.0
11,426392.185035846
90,0.0
87,18.
153,871.766817499486
154,0.0
103,3138360.54299815
134,0.0
2,1, 1, 1, 0, 3, 0.00,60.00,Sunday         
10,0.0
11,556366.87111749
90,0.0
87,18.
153,966.400756832813
154,0.0
103,3479042.72459813
134,0.0
2,1, 1, 1, 0, 4, 0.00,60.00,Sunday         
10,0.0
11,644325.326064977
90,0.0
87,18.
153,1018.39846097886
154,0.0
103,3666234.45952389
134,0.0
2,1, 1, 1, 0, 5, 0.00,60.00,Sunday         
10,0.0
11,700124.56610478
90,0.0
87,18.
153,1088.83649278152
154,0.0
103,3919811.37401345
134,0.0
2,1, 1, 1, 0, 6, 0.00,60.00,Sunday         
10,0.0
11,740191.791055874
90,0.0
87,18.
153,1121.01305581452
154,0.0
103,4035647.00093226
134,0.0
2,1, 1, 1, 0, 7, 0.00,60.00,Sunday         
10,0.0
11,795361.404257208
90,0.0
87,18.
153,1041.09284785156
154,0.0
103,3747934.25226561
134,0.0
2,1, 1, 1, 0, 8, 0.00,60.00,Sunday         
10,0.0
11,4642159.73726069
90,0.0
87,21.026170665261
153,1905.73779733402
154,0.0
103,6860656.07040248
134,0.0
2,1, 1, 1, 0, 9, 0.00,60.00,Sunday         
10,0.0
11,1809966.48570854
90,0.0
87,21.
153,1251.90168549438
154,0.0
103,4506846.06777979
134,0.0
2,1, 1, 1, 0,10, 0.00,60.00,Sunday         
10,0.0
11,1246728.99237064
90,0.0
87,21.
153,1090.05907814153
154,0.0
103,3924212.68130951
134,0.0
2,1, 1, 1, 0,11, 0.00,60.00,Sunday         
10,0.0
11,1079952.92426454
90,0.0
87,21.
153,938.513580972326
154,0.0
103,3378648.89150037
134,0.0
2,1, 1, 1, 0,12, 0.00,60.00,Sunday         
10,0.0
11,879286.090826261
90,0.0
87,21.
153,792.194227672373
154,0.0
103,2851899.21962054
134,0.0
2,1, 1, 1, 0,13, 0.00,60.00,Sunday         
10,0.0
11,654890.277353467
90,0.0
87,21.
153,731.418032353671
154,0.0
103,2633104.91647322
134,0.0
2,1, 1, 1, 0,14, 0.00,60.00,Sunday         
10,0.0
11,433977.835945864
90,0.0
87,21.
153,704.172650752382
154,0.0
103,2535021.54270858
134,0.0
2,1, 1, 1, 0,15, 0.00,60.00,Sunday         
10,0.0
11,247807.721969442
90,0.0
87,21.
153,735.183414481039
154,0.0
103,2646660.29213174
134,0.0
2,1, 1, 1, 0,16, 0.00,60.00,Sunday         
10,0.0
11,183941.662735789
90,0.0
87,21.
153,784.994511441139
154,0.0
103,2825980.2411881
134,0.0
2,1, 1, 1, 0,17, 0.00,60.00,Sunday         
10,9172.33420615707
11,272825.026484786
90,0.0
87,21.
153,876.567705343611
154,0.0
103,3155643.739237
134,0.0
2,1, 1, 1, 0,18, 0.00,60.00,Sunday         
10,0.0
11,417141.88639548
90,0.0
87,21.
153,957.197455094542
154,0.0
103,3445910.83834035
134,0.0
2,1, 1, 1, 0,19, 0.00,60.00,Sunday         
10,2807388.56008237
11,22423.8655248635
90,0.0
87,18.2473434361726
153,151.336056403795
154,0.0
103,544809.803053664
134,0.0
2,1, 1, 1, 0,20, 0.00,60.00,Sunday         
10,686560.473472377
11,0.0
90,0.0
87,18.
153,550.277386362222
154,0.0
103,1980998.590904
134,0.0
2,1, 1, 1, 0,21, 0.00,60.00,Sunday         
10,61912.7804938947
11,42996.566270186
90,0.0
87,18.
153,696.15304343496
154,0.0
103,2506150.95636585
134,0.0
2,1, 1, 1, 0,22, 0.00,60.00,Sunday         
10,0.0
11,243659.177521717
90,0.0
87,18.
153,738.318563414451
154,0.0
103,2657946.82829202
134,0.0
2,1, 1, 1, 0,23, 0.00,60.00,Sunday         
10,0.0
11,342258.637891057
90,0.0
87,18.
153,740.122187177278
154,0.0
103,2664439.8738382
134,0.0
2,1, 1, 1, 0,24, 0.00,60.00,Sunday         
10,0.0
11,373021.279549954
90,0.0
87,18.
153,695.601704793275
154,0.0
103,2504166.13725579
134,0.0
2,2, 1, 2, 0, 1, 0.00,60.00,Monday         
10,0.0
11,370315.051968361
90,0.0
87,18.
153,616.304437108922
154,0.0
103,2218695.97359212
134,0.0
2,2, 1, 2, 0, 2, 0.00,60.00,Monday         
10,0.0
11,347144.587078318
90,0.0
87,18.
153,536.826327355748
154,0.0
103,1932574.77848069
134,0.0
2,2, 1, 2, 0, 3, 0.00,60.00,Monday         
10,0.0
11,312348.590985234
90,0.0
87,18.
153,497.291128073453
154,0.0
103,1790248.06106443
134,0.0
2,2, 1, 2, 0, 4, 0.00,60.00,Monday         
10,0.0
11,290535.114443681
90,0.0
87,18.
153,492.030965349805
154,0.0
103,1771311.4752593
134,0.0
2,2, 1, 2, 0, 5, 0.00,60.00,Monday         
10,0.0
11,311102.977503914
90,0.0
87,18.
153,461.105805025093
154,0.0
103,1659980.89809033
134,0.0
2,2, 1, 2, 0, 6, 0.00,60.00,Monday         
10,0.0
11,278110.917069225
90,0.0
87,18.
153,445.728163519593
154,0.0
103,1604621.38867053
134,0.0
2,2, 1, 2, 0, 7, 0.00,60.00,Monday         
10,0.0
11,272951.162902847
90,0.0
87,18.
153,383.461712265058
154,0.0
103,1380462.16415421
134,0.0
2,2, 1, 2, 0, 8, 0.00,60.00,Monday         
10,0.0
11,4034667.41906349
90,0.0
87,21.026920760485
153,1442.45486597273
154,0.0
103,5192837.51750182
134,0.0
2,2, 1, 2, 0, 9, 0.00,60.00,Monday         
10,0.0
11,1280531.6882889
90,0.0
87,21.
153,728.852685929395
154,0.0
103,2623869.66934582
134,0.0
2,2, 1, 2, 0,10, 0.00,60.00,Monday         
10,0.0
11,727998.023525075
90,0.0
87,21.
153,598.701663506535
154,0.0
103,2155325.98862353
134,0.0
2,2, 1, 2, 0,11, 0.00,60.00,Monday         
10,0.0
11,502450.117381105
90,0.0
87,21.
153,574.247891167704
154,0.0
103,2067292.40820373
134,0.0
2,2, 1, 2, 0,12, 0.00,60.00,Monday         
10,0.0
11,481015.992011043
90,0.0
87,21.
153,583.436849372145
154,0.0
103,2100372.65773972
134,0.0
2,2, 1, 2, 0,13, 0.00,60.00,Monday         
10,0.0
11,509750.923033737
90,0.0
87,21.
153,555.952055096851
154,0.0
103,2001427.39834866
134,0.0
2,2, 1, 2, 0,14, 0.00,60.00,Monday         
10,0.0
11,538041.910249512
90,0.0
87,21.
153,512.524709133199
154,0.0
103,1845088.95287951
134,0.0
2,2, 1, 2, 0,15, 0.00,60.00,Monday         
10,0.0
11,349061.838449963
90,0.0
87,21.
153,489.898862430352
154,0.0
103,1763635.90474927
134,0.0
2,2, 1, 2, 0,16, 0.00,60.00,Monday         
10,13073.3589508685
11,138835.21548419
90,0.0
87,21.
153,532.735747161136
154,0.0
103,1917848.68978009
134,0.0
2,2, 1, 2, 0,17, 0.00,60.00,Monday         
10,0.0
11,229910.542651969
90,0.0
87,21.
153,629.981455496671
154,0.0
103,2267933.23978802
134,0.0
2,2, 1, 2, 0,18, 0.00,60.00,Monday         
10,0.0
11,357277.846310906
90,0.0
87,21.
153,680.420592988801
154,0.0
103,2449514.13475968
134,0.0
2,2, 1, 2, 0,19, 0.00,60.00,Monday         
10,2813563.527578
11,19778.4139101536
90,0.0
87,18.3460696158042
153,40.7958913883666
154,0.0
103,146865.20899812
134,0.0
2,2, 1, 2, 0,20, 0.00,60.00,Monday         
10,808804.998884746
11,0.0
90,0.0
87,18.0000000000019
153,349.96987507815
154,0.0
103,1259891.55028134
134,0.0
2,2, 1, 2, 0,21, 0.00,60.00,Monday         
10,105054.103846636
11,20312.7051540154
90,0.0
87,18.
153,514.126008741758
154,0.0
103,1850853.63147033
134,0.0
2,2, 1, 2, 0,22, 0.00,60.00,Monday         
10,0.0
11,221467.268550803
90,0.0
87,18.
153,587.689459990094
154,0.0
103,2115682.05596434
134,0.0
2,2, 1, 2, 0,23, 0.00,60.00,Monday         
10,0.0
11,414597.879755021
90,0.0
87,18.
153,659.714959214975
154,0.0
103,2374973.85317391
134,0.0
2,2, 1, 2, 0,24, 0.00,60.00,Monday         
10,0.0
11,445160.301540944
90,0.0
87,18.
153,638.305223850273
154,0.0
103,2297898.80586098
134,0.0
2,3, 1, 3, 0, 1, 0.00,60.00,Tuesday        
10,0.0
11,404502.895056001
90,0.0
87,18.
153,645.407415062159
154,0.0
103,2323466.69422377
134,0.0
2,3, 1, 3, 0, 2, 0.00,60.00,Tuesday        
10,0.0
11,398238.159446248
90,0.0
87,18.
153,680.859251275539
154,0.0
103,2451093.30459194
134,0.0
2,3, 1, 3, 0, 3, 0.00,60.00,Tuesday        
10,0.0
11,419750.511508054
90,0.0
87,18.
153,755.893777934343
154,0.0
103,2721217.60056364
134,0.0
2,3, 1, 3, 0, 4, 0.00,60.00,Tuesday        
10,0.0
11,485643.361337501
90,0.0
87,18.
153,773.314250419002
154,0.0
103,2783931.30150841
134,0.0
2,3, 1, 3, 0, 5, 0.00,60.00,Tuesday        
10,0.0
11,515235.514657136
90,0.0
87,18.
153,742.696373958556
154,0.0
103,2673706.9462508
134,0.0
2,3, 1, 3, 0, 6, 0.00,60.00,Tuesday        
10,0.0
11,513275.576297704
90,0.0
87,18.
153,742.853734258201
154,0.0
103,2674273.44332952
134,0.0
2,3, 1, 3, 0, 7, 0.00,60.00,Tuesday        
10,0.0
11,531539.94428201
90,0.0
87,18.
153,675.892476751908
154,0.0
103,2433212.91630687
134,0.0
2,3, 1, 3, 0, 8, 0.00,60.00,Tuesday        
10,0.0
11,4336460.83734406
90,0.0
87,21.0201434437644
153,1706.61251493554
154,0.0
103,6143805.05376793
134,0.0
2,3, 1, 3, 0, 9, 0.00,60.00,Tuesday        
10,0.0
11,1551087.91061242
90,0.0
87,21.
153,951.615581985818
154,0.0
103,3425816.09514895
134,0.0
2,3, 1, 3, 0,10, 0.00,60.00,Tuesday        
10,0.0
11,1024886.20421242
90,0.0
87,21.
153,783.575316430784
154,0.0
103,2820871.13915082
134,0.0
2,3, 1, 3, 0,11, 0.00,60.00,Tuesday        
10,0.0
11,855900.106063317
90,0.0
87,21.
153,677.245437706345
154,0.0
103,2438083.57574284
134,0.0
2,3, 1, 3, 0,12, 0.00,60.00,Tuesday        
10,0.0
11,706290.551925017
90,0.0
87,21.
153,596.652954662958
154,0.0
103,2147950.63678665
134,0.0
2,3, 1, 3, 0,13, 0.00,60.00,Tuesday        
10,0.0
11,543492.972975838
90,0.0
87,21.
153,558.509310386957
154,0.0
103,2010633.51739305
134,0.0
2,3, 1, 3, 0,14, 0.00,60.00,Tuesday        
10,0.0
11,371082.179479942
90,0.0
87,21.
153,551.846150537403
154,0.0
103,1986646.14193465
134,0.0
2,3, 1, 3, 0,15, 0.00,60.00,Tuesday        
10,0.0
11,216400.460113935
90,0.0
87,21.
153,574.863107360714
154,0.0
103,2069507.18649857
134,0.0
2,3, 1, 3, 0,16, 0.00,60.00,Tuesday        
10,0.0
11,182237.330272994
90,0.0
87,21.
153,621.253629335763
154,0.0
103,2236513.06560875
134,0.0
2,3, 1, 3, 0,17, 0.00,60.00,Tuesday        
10,0.0
11,322074.167231611
90,0.0
87,21.
153,665.243008225774
154,0.0
103,2394874.82961279
134,0.0
2,3, 1, 3, 0,18, 0.00,60.00,Tuesday        
10,4400.08741556632
11,353877.83863405
90,0.0
87,21.
153,728.530961265285
154,0.0
103,2622711.46055502
134,0.0
2,3, 1, 3, 0,19, 0.00,60.00,Tuesday        
10,2786407.83487213
11,17783.8250592306
90,0.0
87,18.3241969123349
153,88.0271613144347
154,0.0
103,316897.780731965
134,0.0
2,3, 1, 3, 0,20, 0.00,60.00,Tuesday        
10,704022.294115605
11,0.0
90,0.0
87,18.
153,497.420170068488
154,0.0
103,1790712.61224656
134,0.0
2,3, 1, 3, 0,21, 0.00,60.00,Tuesday        
10,43890.5559628046
11,86075.4366188976
90,0.0
87,18.
153,667.665651659934
154,0.0
103,2403596.34597576
134,0.0
2,3, 1, 3, 0,22, 0.00,60.00,Tuesday        
10,0.0
11,367235.075387293
90,0.0
87,18.
153,754.738249410191
154,0.0
103,2717057.69787669
134,0.0
2,3, 1, 3, 0,23, 0.00,60.00,Tuesday        
10,0.0
11,522428.082931382
90,0.0
87,18.
153,844.172359677236
154,0.0
103,3039020.49483805
134,0.0
2,3, 1, 3, 0,24, 0.00,60.00,Tuesday        
10,0.0
11,577943.607964659
90,0.0
87,18.
153,825.833164529234
154,0.0
103,2972999.39230524
134,0.0
2,4, 1, 4, 0, 1, 0.00,60.00,Wednesday      
10,0.0
11,561308.863936537
90,0.0
87,18.
153,840.228063730424
154,0.0
103,3024821.02942953
134,0.0
2,4, 1, 4, 0, 2, 0.00,60.00,Wednesday      
10,0.0
11,586863.946743006
90,0.0
87,18.
153,844.383872709402
154,0.0
103,3039781.94175385
134,0.0
2,4, 1, 4, 0, 3, 0.00,60.00,Wednesday      
10,0.0
11,587842.306874717
90,0.0
87,18.
153,813.160956896702
154,0.0
103,2927379.44482813
134,0.0
2,4, 1, 4, 0, 4, 0.00,60.00,Wednesday      
10,0.0
11,559624.534994435
90,0.0
87,18.
153,840.343486203296
154,0.0
103,3025236.55033186
134,0.0
2,4, 1, 4, 0, 5, 0.00,60.00,Wednesday      
10,0.0
11,552114.798810549
90,0.0
87,18.
153,901.913174843468
154,0.0
103,3246887.42943648
134,0.0
2,4, 1, 4, 0, 6, 0.00,60.00,Wednesday      
10,0.0
11,586021.787615588
90,0.0
87,18.
153,934.825172115705
154,0.0
103,3365370.61961654
134,0.0
2,4, 1, 4, 0, 7, 0.00,60.00,Wednesday      
10,0.0
11,639948.276459172
90,0.0
87,18.
153,866.140266616547
154,0.0
103,3118104.95981957
134,0.0
2,4, 1, 4, 0, 8, 0.00,60.00,Wednesday      
10,0.0
11,4500747.09642114
90,0.0
87,21.035209509775
153,1775.25132445894
154,0.0
103,6390904.7680522
134,0.0
2,4, 1, 4, 0, 9, 0.00,60.00,Wednesday      
10,0.0
11,1737010.54653354
90,0.0
87,21.
153,1150.28355378751
154,0.0
103,4141020.79363502
134,0.0
2,4, 1, 4, 0,10, 0.00,60.00,Wednesday      
10,0.0
11,1222136.59688908
90,0.0
87,21.
153,929.46671039209
154,0.0
103,3346080.15741152
134,0.0
2,4, 1, 4, 0,11, 0.00,60.00,Wednesday      
10,0.0
11,784659.119424035
90,0.0
87,21.
153,847.794383249162
154,0.0
103,3052059.77969698
134,0.0
2,4, 1, 4, 0,12, 0.00,60.00,Wednesday      
10,0.0
11,848567.555833067
90,0.0
87,21.
153,824.93094776524
154,0.0
103,2969751.41195487
134,0.0
2,4, 1, 4, 0,13, 0.00,60.00,Wednesday      
10,0.0
11,727520.756416475
90,0.0
87,21.
153,745.033596356313
154,0.0
103,2682120.94688273
134,0.0
2,4, 1, 4, 0,14, 0.00,60.00,Wednesday      
10,0.0
11,563399.720091192
90,0.0
87,21.
153,700.261792561956
154,0.0
103,2520942.45322304
134,0.0
2,4, 1, 4, 0,15, 0.00,60.00,Wednesday      
10,0.0
11,453553.939138149
90,0.0
87,21.
153,690.81019087438
154,0.0
103,2486916.68714777
134,0.0
2,4, 1, 4, 0,16, 0.00,60.00,Wednesday      
10,1308.12678651849
11,227457.744033346
90,0.0
87,21.
153,745.778668789942
154,0.0
103,2684803.20764379
134,0.0
2,4, 1, 4, 0,17, 0.00,60.00,Wednesday      
10,0.0
11,354737.995758238
90,0.0
87,21.
153,841.103813801556
154,0.0
103,3027973.7296856
134,0.0
2,4, 1, 4, 0,18, 0.00,60.00,Wednesday      
10,0.0
11,528659.623718858
90,0.0
87,21.
153,906.541954693512
154,0.0
103,3263551.03689664
134,0.0
2,4, 1, 4, 0,19, 0.00,60.00,Wednesday      
10,2775364.71936174
11,28888.0063064018
90,0.0
87,18.1887532400506
153,226.134536597845
154,0.0
103,814084.331752241
134,0.0
2,4, 1, 4, 0,20, 0.00,60.00,Wednesday      
10,508638.799489972
11,0.0
90,0.0
87,18.
153,648.587280106915
154,0.0
103,2334914.20838489
134,0.0
2,4, 1, 4, 0,21, 0.00,60.00,Wednesday      
10,2532.15731132826
11,208604.541744688
90,0.0
87,18.
153,777.672060816408
154,0.0
103,2799619.41893907
134,0.0
2,4, 1, 4, 0,22, 0.00,60.00,Wednesday      
10,0.0
11,473753.878387895
90,0.0
87,18.
153,835.860269177354
154,0.0
103,3009096.96903847
134,0.0
2,4, 1, 4, 0,23, 0.00,60.00,Wednesday      
10,0.0
11,577481.231756256
90,0.0
87,18.
153,941.13161866409
154,0.0
103,3388073.82719072
134,0.0
2,4, 1, 4, 0,24, 0.00,60.00,Wednesday      
10,0.0
11,623786.857746177
90,0.0
87,18.
153,945.228388153395
154,0.0
103,3402822.19735222
134,0.0
2,5, 1, 5, 0, 1, 0.00,60.00,Thursday       
10,0.0
11,646276.536447075
90,0.0
87,18.
153,925.094751834587
154,0.0
103,3330341.10660451
134,0.0
2,5, 1, 5, 0, 2, 0.00,60.00,Thursday       
10,0.0
11,666930.766525416
90,0.0
87,18.
153,876.68371153843
154,0.0
103,3156061.36153835
134,0.0
2,5, 1, 5, 0, 3, 0.00,60.00,Thursday       
10,0.0
11,647042.430734673
90,0.0
87,18.
153,815.480056274728
154,0.0
103,2935728.20258902
134,0.0
2,5, 1, 5, 0, 4, 0.00,60.00,Thursday       
10,0.0
11,492083.901933063
90,0.0
87,18.
153,802.063026255846
154,0.0
103,2887426.89452105
134,0.0
2,5, 1, 5, 0, 5, 0.00,60.00,Thursday       
10,0.0
11,487485.469099496
90,0.0
87,18.
153,809.797824345596
154,0.0
103,2915272.16764415
134,0.0
2,5, 1, 5, 0, 6, 0.00,60.00,Thursday       
10,0.0
11,470144.860257157
90,0.0
87,18.
153,793.88825475148
154,0.0
103,2857997.71710533
134,0.0
2,5, 1, 5, 0, 7, 0.00,60.00,Thursday       
10,0.0
11,453519.577633868
90,0.0
87,18.
153,665.96207619744
154,0.0
103,2397463.47431078
134,0.0
2,5, 1, 5, 0, 8, 0.00,60.00,Thursday       
10,0.0
11,4257253.03931395
90,0.0
87,21.0202387616044
153,1745.28280416776
154,0.0
103,6283018.09500392
134,0.0
2,5, 1, 5, 0, 9, 0.00,60.00,Thursday       
10,0.0
11,1467557.84059219
90,0.0
87,21.
153,998.031744068777
154,0.0
103,3592914.2786476
134,0.0
2,5, 1, 5, 0,10, 0.00,60.00,Thursday       
10,0.0
11,1056844.36239704
90,0.0
87,21.
153,833.873141073722
154,0.0
103,3001943.3078654
134,0.0
2,5, 1, 5, 0,11, 0.00,60.00,Thursday       
10,0.0
11,937318.301703445
90,0.0
87,21.
153,685.154359448437
154,0.0
103,2466555.69401437
134,0.0
2,5, 1, 5, 0,12, 0.00,60.00,Thursday       
10,0.0
11,741630.524518799
90,0.0
87,21.
153,587.578925302483
154,0.0
103,2115284.13108894
134,0.0
2,5, 1, 5, 0,13, 0.00,60.00,Thursday       
10,0.0
11,582297.145229537
90,0.0
87,21.
153,551.21632668093
154,0.0
103,1984378.77605135
134,0.0
2,5, 1, 5, 0,14, 0.00,60.00,Thursday       
10,0.0
11,353321.72706598
90,0.0
87,21.
153,554.924816782125
154,0.0
103,1997729.34041565
134,0.0
2,5, 1, 5, 0,15, 0.00,60.00,Thursday       
10,0.0
11,143703.495834242
90,0.0
87,21.
153,598.806243117166
154,0.0
103,2155702.4752218
134,0.0
2,5, 1, 5, 0,16, 0.00,60.00,Thursday       
10,0.0
11,142880.481612788
90,0.0
87,21.
153,677.150089334157
154,0.0
103,2437740.32160296
134,0.0
2,5, 1, 5, 0,17, 0.00,60.00,Thursday       
10,9513.00917853204
11,220085.304746459
90,0.0
87,21.
153,843.367576584266
154,0.0
103,3036123.27570336
134,0.0
2,5, 1, 5, 0,18, 0.00,60.00,Thursday       
10,0.0
11,473973.943372738
90,0.0
87,21.
153,958.153339478718
154,0.0
103,3449352.02212339
134,0.0
2,5, 1, 5, 0,19, 0.00,60.00,Thursday       
10,2761771.21417911
11,30190.0543378526
90,0.0
87,18.1620351819919
153,216.612006949053
154,0.0
103,779803.22501659
134,0.0
2,5, 1, 5, 0,20, 0.00,60.00,Thursday       
10,501501.61373245
11,0.0
90,0.0
87,18.
153,601.467851989856
154,0.0
103,2165284.26716348
134,0.0
2,5, 1, 5, 0,21, 0.00,60.00,Thursday       
10,5865.47664229761
11,162760.879452325
90,0.0
87,18.
153,710.877602529181
154,0.0
103,2559159.36910505
134,0.0
2,5, 1, 5, 0,22, 0.00,60.00,Thursday       
10,0.0
11,406927.177980855
90,0.0
87,18.
153,773.196872727889
154,0.0
103,2783508.7418204
134,0.0
2,5, 1, 5, 0,23, 0.00,60.00,Thursday       
10,0.0
11,502372.4556048
90,0.0
87,18.
153,974.17028388596
154,0.0
103,3507013.02198946
134,0.0
2,5, 1, 5, 0,24, 0.00,60.00,Thursday       
10,0.0
11,534529.132214035
90,0.0
87,18.
153,981.454369581064
154,0.0
103,3533235.73049183
134,0.0
2,6, 1, 6, 0, 1, 0.00,60.00,Friday         
10,0.0
11,541332.350464645
90,0.0
87,18.
153,991.359007148263
154,0.0
103,3568892.42573374
134,0.0
2,6, 1, 6, 0, 2, 0.00,60.00,Friday         
10,0.0
11,546651.244598156
90,0.0
87,18.
153,975.994513142852
154,0.0
103,3513580.24731427
134,0.0
2,6, 1, 6, 0, 3, 0.00,60.00,Friday         
10,0.0
11,547959.537850837
90,0.0
87,18.
153,970.157714402428
154,0.0
103,3492567.77184874
134,0.0
2,6, 1, 6, 0, 4, 0.00,60.00,Friday         
10,0.0
11,543405.039526996
90,0.0
87,18.
153,973.602986663394
154,0.0
103,3504970.75198822
134,0.0
2,6, 1, 6, 0, 5, 0.00,60.00,Friday         
10,0.0
11,537406.617072641
90,0.0
87,18.
153,966.874474888495
154,0.0
103,3480748.10959858
134,0.0
2,6, 1, 6, 0, 6, 0.00,60.00,Friday         
10,0.0
11,534244.323192099
90,0.0
87,18.
153,959.105197472677
154,0.0
103,3452778.71090164
134,0.0
2,6, 1, 6, 0, 7, 0.00,60.00,Friday         
10,0.0
11,546363.253322714
90,0.0
87,18.
153,810.450106604587
154,0.0
103,2917620.38377651
134,0.0
2,6, 1, 6, 0, 8, 0.00,60.00,Friday         
10,0.0
11,4407738.45796537
90,0.0
87,21.0385364785688
153,1760.98783250926
154,0.0
103,6339556.19703332
134,0.0
2,6, 1, 6, 0, 9, 0.00,60.00,Friday         
10,0.0
11,1685664.6886152
90,0.0
87,21.
153,1145.25694742641
154,0.0
103,4122925.01073508
134,0.0
2,6, 1, 6, 0,10, 0.00,60.00,Friday         
10,0.0
11,1197955.91112403
90,0.0
87,21.
153,936.186490605446
154,0.0
103,3370271.36617961
134,0.0
2,6, 1, 6, 0,11, 0.00,60.00,Friday         
10,0.0
11,919883.655060355
90,0.0
87,21.
153,798.51598485722
154,0.0
103,2874657.54548599
134,0.0
2,6, 1, 6, 0,12, 0.00,60.00,Friday         
10,0.0
11,736126.924979822
90,0.0
87,21.
153,697.975520404594
154,0.0
103,2512711.87345654
134,0.0
2,6, 1, 6, 0,13, 0.00,60.00,Friday         
10,0.0
11,560292.354850397
90,0.0
87,21.
153,636.745684093751
154,0.0
103,2292284.4627375
134,0.0
2,6, 1, 6, 0,14, 0.00,60.00,Friday         
10,0.0
11,432944.642132403
90,0.0
87,21.
153,614.079760419828
154,0.0
103,2210687.13751138
134,0.0
2,6, 1, 6, 0,15, 0.00,60.00,Friday         
10,54721.9345950131
11,108671.581868428
90,0.0
87,21.
153,707.462939525332
154,0.0
103,2546866.5822912
134,0.0
2,6, 1, 6, 0,16, 0.00,60.00,Friday         
10,0.0
11,420571.486182742
90,0.0
87,21.
153,786.974806364097
154,0.0
103,2833109.30291075
134,0.0
2,6, 1, 6, 0,17, 0.00,60.00,Friday         
10,0.0
11,500658.338195084
90,0.0
87,21.
153,787.474449859889
154,0.0
103,2834908.0194956
134,0.0
2,6, 1, 6, 0,18, 0.00,60.00,Friday         
10,0.0
11,472427.524124075
90,0.0
87,21.
153,830.785933058164
154,0.0
103,2990829.35900939
134,0.0
2,6, 1, 6, 0,19, 0.00,60.00,Friday         
10,2776395.65853716
11,25571.6565984479
90,0.0
87,18.2215516246582
153,115.156449373359
154,0.0
103,414563.217744091
134,0.0
2,6, 1, 6, 0,20, 0.00,60.00,Friday         
10,624067.717342012
11,0.0
90,0.0
87,18.
153,452.925042581125
154,0.0
103,1630530.15329205
134,0.0
2,6, 1, 6, 0,21, 0.00,60.00,Friday         
10,37851.9484877295
11,120802.023264224
90,0.0
87,18.
153,540.756919882244
154,0.0
103,1946724.91157608
134,0.0
2,6, 1, 6, 0,22, 0.00,60.00,Friday         
10,0.0
11,314756.331960218
90,0.0
87,18.
153,555.297678761405
154,0.0
103,1999071.64354106
134,0.0
2,6, 1, 6, 0,23, 0.00,60.00,Friday         
10,0.0
11,382183.969110075
90,0.0
87,18.
153,616.061594102471
154,0.0
103,2217821.7387689
134,0.0
2,6, 1, 6, 0,24, 0.00,60.00,Friday         
10,0.0
11,348453.239560527
90,0.0
87,18.
153,647.230611496329
154,0.0
103,2330030.20138678
134,0.0
2,7, 1, 7, 0, 1, 0.00,60.00,Saturday       
10,0.0
11,435946.321430127
90,0.0
87,18.
153,664.68251909222
154,0.0
103,2392857.06873199
134,0.0
2,7, 1, 7, 0, 2, 0.00,60.00,Saturday       
10,0.0
11,391164.500019708
90,0.0
87,18.
153,678.824948002547
154,0.0
103,2443769.81280917
134,0.0
2,7, 1, 7, 0, 3, 0.00,60.00,Saturday       
10,0.0
11,467646.497734411
90,0.0
87,18.
153,678.725244011463
154,0.0
103,2443410.87844126
134,0.0
2,7, 1, 7, 0, 4, 0.00,60.00,Saturday       
10,0.0
11,394231.696941206
90,0.0
87,18.
153,678.418212859312
154,0.0
103,2442305.56629352
134,0.0
2,7, 1, 7, 0, 5, 0.00,60.00,Saturday       
10,0.0
11,417910.02228304
90,0.0
87,18.
153,718.185234752343
154,0.0
103,2585466.84510843
134,0.0
2,7, 1, 7, 0, 6, 0.00,60.00,Saturday       
10,0.0
11,441756.245226573
90,0.0
87,18.
153,749.938648328827
154,0.0
103,2699779.13398378
134,0.0
2,7, 1, 7, 0, 7, 0.00,60.00,Saturday       
10,0.0
11,461887.317841513
90,0.0
87,18.
153,684.874542879685
154,0.0
103,2465548.35436687
134,0.0
2,7, 1, 7, 0, 8, 0.00,60.00,Saturday       
10,0.0
11,4320158.20396961
90,0.0
87,21.0497152910741
153,1638.87250933088
154,0.0
103,5899941.03359117
134,0.0
2,7, 1, 7, 0, 9, 0.00,60.00,Saturday       
10,0.0
11,1603497.34170085
90,0.0
87,21.
153,1038.32869452356
154,0.0
103,3737983.30028483
134,0.0
2,7, 1, 7, 0,10, 0.00,60.00,Saturday       
10,0.0
11,1108489.08750658
90,0.0
87,21.
153,858.65702967436
154,0.0
103,3091165.30682769
134,0.0
2,7, 1, 7, 0,11, 0.00,60.00,Saturday       
10,0.0
11,759105.346479549
90,0.0
87,21.
153,754.845621159389
154,0.0
103,2717444.2361738
134,0.0
2,7, 1, 7, 0,12, 0.00,60.00,Saturday       
10,0.0
11,656878.161982981
90,0.0
87,21.
153,694.470787322787
154,0.0
103,2500094.83436203
134,0.0
2,7, 1, 7, 0,13, 0.00,60.00,Saturday       
10,0.0
11,559525.949172477
90,0.0
87,21.
153,657.040583237898
154,0.0
103,2365346.09965643
134,0.0
2,7, 1, 7, 0,14, 0.00,60.00,Saturday       
10,0.0
11,492166.664229579
90,0.0
87,21.
153,639.166944940621
154,0.0
103,2301001.00178624
134,0.0
2,7, 1, 7, 0,15, 0.00,60.00,Saturday       
10,20049.8675777676
11,259638.504281297
90,0.0
87,21.
153,716.481591981537
154,0.0
103,2579333.73113353
134,0.0
2,7, 1, 7, 0,16, 0.00,60.00,Saturday       
10,0.0
11,390775.89615012
90,0.0
87,21.
153,787.472379816364
154,0.0
103,2834900.56733891
134,0.0
2,7, 1, 7, 0,17, 0.00,60.00,Saturday       
10,5616.30709721824
11,399240.143370933
90,0.0
87,21.
153,861.527477960078
154,0.0
103,3101498.92065628
134,0.0
2,7, 1, 7, 0,18, 0.00,60.00,Saturday       
10,0.0
11,528635.676980015
90,0.0
87,21.
153,925.285905138029
154,0.0
103,3331029.25849691
134,0.0
2,7, 1, 7, 0,19, 0.00,60.00,Saturday       
10,2729005.24313724
11,28540.9584244002
90,0.0
87,18.1640189667558
153,228.910769498765
154,0.0
103,824078.770195554
134,0.0
2,7, 1, 7, 0,20, 0.00,60.00,Saturday       
10,534945.377135316
11,0.0
90,0.0
87,18.
153,603.518469122006
154,0.0
103,2172666.48883922
134,0.0
2,7, 1, 7, 0,21, 0.00,60.00,Saturday       
10,17697.3658978883
11,110634.585561414
90,0.0
87,18.
153,712.472022462758
154,0.0
103,2564899.28086593
134,0.0
2,7, 1, 7, 0,22, 0.00,60.00,Saturday       
10,0.0
11,365823.382706939
90,0.0
87,18.
153,733.058395820206
154,0.0
103,2639010.22495274
134,0.0
2,7, 1, 7, 0,23, 0.00,60.00,Saturday       
10,0.0
11,461068.237183294
90,0.0
87,18.
153,735.296042251803
154,0.0
103,2647065.75210649
134,0.0
2,7, 1, 7, 0,24, 0.00,60.00,Saturday       
10,0.0
11,483170.384213949
90,0.0
87,18.
153,739.580068188
154,0.0
103,2662488.2454768
134,0.0
2,8, 1, 8, 0, 1, 0.00,60.00,Sunday         
10,0.0
11,504175.094863799
90,0.0
87,18.
153,740.405066205736
154,0.0
103,2665458.23834065
134,0.0
2,8, 1, 8, 0, 2, 0.00,60.00,Sunday         
10,0.0
11,487448.475925749
90,0.0
87,18.
153,773.247462659189
154,0.0
103,2783690.86557308
134,0.0
2,8, 1, 8, 0, 3, 0.00,60.00,Sunday         
10,0.0
11,502646.381108437
90,0.0
87,18.
153,829.512668332903
154,0.0
103,2986245.60599845
134,0.0
2,8, 1, 8, 0, 4, 0.00,60.00,Sunday         
10,0.0
11,546384.985006822
90,0.0
87,18.
153,837.796890145132
154,0.0
103,3016068.80452247
134,0.0
2,8, 1, 8, 0, 5, 0.00,60.00,Sunday         
10,0.0
11,572294.47870334
90,0.0
87,18.
153,816.402759483695
154,0.0
103,2939049.9341413
134,0.0
2,8, 1, 8, 0, 6, 0.00,60.00,Sunday         
10,0.0
11,556180.451390739
90,0.0
87,18.
153,817.914583833045
154,0.0
103,2944492.50179896
134,0.0
2,8, 1, 8, 0, 7, 0.00,60.00,Sunday         
10,0.0
11,557052.193209554
90,0.0
87,18.
153,816.226564254882
154,0.0
103,2938415.63131757
134,0.0
2,8, 1, 8, 0, 8, 0.00,60.00,Sunday         
10,0.0
11,4388365.15004967
90,0.0
87,21.0431993630075
153,1733.71593782253
154,0.0
103,6241377.37616111
134,0.0
2,8, 1, 8, 0, 9, 0.00,60.00,Sunday         
10,0.0
11,1560370.25385954
90,0.0
87,21.
153,1088.7958985748
154,0.0
103,3919665.23486927
134,0.0
2,8, 1, 8, 0,10, 0.00,60.00,Sunday         
10,0.0
11,969951.295989921
90,0.0
87,21.
153,908.00919426097
154,0.0
103,3268833.09933949
134,0.0
2,8, 1, 8, 0,11, 0.00,60.00,Sunday         
10,0.0
11,686156.369076214
90,0.0
87,21.
153,920.626732052933
154,0.0
103,3314256.23539056
134,0.0
2,8, 1, 8, 0,12, 0.00,60.00,Sunday         
10,0.0
11,665165.498521826
90,0.0
87,21.
153,970.514015318769
154,0.0
103,3493850.45514757
134,0.0
2,8, 1, 8, 0,13, 0.00,60.00,Sunday         
10,0.0
11,605376.193301632
90,0.0
87,21.
153,978.104986374654
154,0.0
103,3521177.95094875
134,0.0
2,8, 1, 8, 0,14, 0.00,60.00,Sunday         
10,0.0
11,549967.875075446
90,0.0
87,21.
153,996.070016684913
154,0.0
103,3585852.06006569
134,0.0
2,8, 1, 8, 0,15, 0.00,60.00,Sunday         
10,0.0
11,520651.989693381
90,0.0
87,21.
153,984.828649168356
154,0.0
103,3545383.13700608
134,0.0
2,8, 1, 8, 0,16, 0.00,60.00,Sunday         
10,0.0
11,493751.813461499
90,0.0
87,21.
153,973.495254720087
154,0.0
103,3504582.91699231
134,0.0
2,8, 1, 8, 0,17, 0.00,60.00,Sunday         
10,0.0
11,492244.722230783
90,0.0
87,21.
153,979.039048596333
154,0.0
103,3524540.5749468
134,0.0
2,8, 1, 8, 0,18, 0.00,60.00,Sunday         
10,0.0
11,503502.089811
90,0.0
87,21.
153,962.598350569843
154,0.0
103,3465354.06205143
134,0.0
2,8, 1, 8, 0,19, 0.00,60.00,Sunday         
10,2811436.58319403
11,24548.8070757649
90,0.0
87,18.2623592726199
153,128.386557229096
154,0.0
103,462191.606024747
134,0.0
2,8, 1, 8, 0,20, 0.00,60.00,Sunday         
10,723503.47229694
11,0.0
90,0.0
87,18.
153,503.851968924324
154,0.0
103,1813867.08812757
134,0.0
2,8, 1, 8, 0,21, 0.00,60.00,Sunday         
10,111586.956075292
11,48768.1778846221
90,0.0
87,18.
153,650.271354215162
154,0.0
103,2340976.87517458
134,0.0
2,8, 1, 8, 0,22, 0.00,60.00,Sunday         
10,0.0
11,206057.930075132
90,0.0
87,18.
153,745.559494313797
154,0.0
103,2684014.17952967
134,0.0
2,8, 1, 8, 0,23, 0.00,60.00,Sunday         
10,0.0
11,349483.964846544
90,0.0
87,18.
153,801.582627093052
154,0.0
103,2885697.45753499
134,0.0
2,8, 1, 8, 0,24, 0.00,60.00,Sunday         
10,0.0
11,425378.438676971
90,0.0
87,18.
153,842.334430993364
154,0.0
103,3032403.95157611
134,0.0
2,9, 1, 9, 0, 1, 0.00,60.00,Monday         
10,0.0
11,485315.557861051
90,0.0
87,18.
153,869.942401983917
154,0.0
103,3131792.6471421
134,0.0
2,9, 1, 9, 0, 2, 0.00,60.00,Monday         
10,0.0
11,538791.320034191
90,0.0
87,18.
153,872.997659170277
154,0.0
103,3142791.573013
134,0.0
2,9, 1, 9, 0, 3, 0.00,60.00,Monday         
10,0.0
11,572855.884208016
90,0.0
87,18.
153,879.971595838241
154,0.0
103,3167897.74501767
134,0.0
2,9, 1, 9, 0, 4, 0.00,60.00,Monday         
10,0.0
11,595002.571343808
90,0.0
87,18.
153,871.28322712027
154,0.0
103,3136619.61763297
134,0.0
2,9, 1, 9, 0, 5, 0.00,60.00,Monday         
10,0.0
11,609106.14668384
90,0.0
87,18.
153,900.396348192488
154,0.0
103,3241426.85349296
134,0.0
2,9, 1, 9, 0, 6, 0.00,60.00,Monday         
10,0.0
11,637003.637896144
90,0.0
87,18.
153,900.585075584102
154,0.0