Program Version,EnergyPlus, Version 8.8, YMD=2015.03.22 20:57
1,5,Environment Title[],Latitude[deg],Longitude[deg],Time Zone[],Elevation[m]
2,6,Day of Simulation[],Month[],Day of Month[],DST Indicator[1=yes 0=no],Hour[],StartMinute[],EndMinute[],DayType
3,3,Cumulative Day of Simulation[],Month[],Day of Month[],DST Indicator[1=yes 0=no],DayType  ! When Daily Meters Requested
4,2,Cumulative Days of Simulation[],Month[]  ! When Monthly Meters Requested
5,1,Cumulative Days of Simulation[] ! When Run Period Meters Requested
349,1,DistrictHeating:HVAC [J] !Hourly
380,1,DistrictCooling:HVAC [J] !Hourly
372,9,DistrictCooling:Facility [J] !Monthly  [Value,Min,Day,Hour,Minute,Max,Day,Hour,Minute]
106,9,DistrictHeating:Facility [J] !Monthly  [Value,Min,Day,Hour,Minute,Max,Day,Hour,Minute]
44,9,InteriorLights:Electricity [J] !Monthly  [Value,Min,Day,Hour,Minute,Max,Day,Hour,Minute]
971,9,Carbon Equivalent:Facility [kg] !Monthly  [Value,Min,Day,Hour,Minute,Max,Day,Hour,Minute]
End of Data Dictionary
1,ANNUAL,  45.53,-122.95,  -8.00,  62.00
2,1, 1, 1, 0, 1, 0.00,60.00,Sunday         
349,1993719.4497929
380,0.0
2,1, 1, 1, 0, 2, 0.00,60.00,Sunday         
349,2084738.76996126
380,0.0
2,1, 1, 1, 0, 3, 0.00,60.00,Sunday         
349,2078944.11653893
380,0.0
2,1, 1, 1, 0, 4, 0.00,60.00,Sunday         
349,2101718.01963076
380,0.0
2,1, 1, 1, 0, 5, 0.00,60.00,Sunday         
349,2043435.86470476
380,0.0
2,1, 1, 1, 0, 6, 0.00,60.00,Sunday         
349,2173667.2213088
380,0.0
2,1, 1, 1, 0, 7, 0.00,60.00,Sunday         
349,2257282.81473876
380,0.0
2,1, 1, 1, 0, 8, 0.00,60.00,Sunday         
349,5746924.28229676
380,0.0
2,1, 1, 1, 0, 9, 0.00,60.00,Sunday         
349,3015449.46051855
380,0.0
2,1, 1, 1, 0,10, 0.00,60.00,Sunday         
349,2825568.80860843
380,0.0
2,1, 1, 1, 0,11, 0.00,60.00,Sunday         
349,2809718.62205079
380,0.0
2,1, 1, 1, 0,12, 0.00,60.00,Sunday         
349,2477134.38553028
380,0.0
2,1, 1, 1, 0,13, 0.00,60.00,Sunday         
349,2556412.89689504
380,0.0
2,1, 1, 1, 0,14, 0.00,60.00,Sunday         
349,2530583.10907484
380,0.0
2,1, 1, 1, 0,15, 0.00,60.00,Sunday         
349,2275166.6011648
380,0.0
2,1, 1, 1, 0,16, 0.00,60.00,Sunday         
349,2375318.82992982
380,0.0
2,1, 1, 1, 0,17, 0.00,60.00,Sunday         
349,2390653.83083457
380,0.0
2,1, 1, 1, 0,18, 0.00,60.00,Sunday         
349,2374473.04204106
380,0.0
2,1, 1, 1, 0,19, 0.00,60.00,Sunday         
349,108204.548214083
380,0.0
2,1, 1, 1, 0,20, 0.00,60.00,Sunday         
349,1017374.46656527
380,0.0
2,1, 1, 1, 0,21, 0.00,60.00,Sunday         
349,1591148.17787574
380,0.0
2,1, 1, 1, 0,22, 0.00,60.00,Sunday         
349,1826092.62784244
380,0.0
2,1, 1, 1, 0,23, 0.00,60.00,Sunday         
349,1807426.19711345
380,0.0
2,1, 1, 1, 0,24, 0.00,60.00,Sunday         
349,1799578.52736086
380,0.0
2,2, 1, 2, 0, 1, 0.00,60.00,Monday         
349,1844477.51811228
380,0.0
2,2, 1, 2, 0, 2, 0.00,60.00,Monday         
349,1925510.67580788
380,0.0
2,2, 1, 2, 0, 3, 0.00,60.00,Monday         
349,1972368.35544436
380,0.0
2,2, 1, 2, 0, 4, 0.00,60.00,Monday         
349,1914985.10127522
380,0.0
2,2, 1, 2, 0, 5, 0.00,60.00,Monday         
349,1769623.77053876
380,0.0
2,2, 1, 2, 0, 6, 0.00,60.00,Monday         
349,1561229.19758082
380,0.0
2,2, 1, 2, 0, 7, 0.00,60.00,Monday         
349,668819.782563934
380,0.0
2,2, 1, 2, 0, 8, 0.00,60.00,Monday         
349,2985682.96174435
380,0.0
2,2, 1, 2, 0, 9, 0.00,60.00,Monday         
349,25353.8721920395
380,0.0
2,2, 1, 2, 0,10, 0.00,60.00,Monday         
349,0.0
380,0.0
2,2, 1, 2, 0,11, 0.00,60.00,Monday         
349,0.0
380,0.0
2,2, 1, 2, 0,12, 0.00,60.00,Monday         
349,0.0
380,0.0
2,2, 1, 2, 0,13, 0.00,60.00,Monday         
349,0.0
380,0.0
2,2, 1, 2, 0,14, 0.00,60.00,Monday         
349,0.0
380,0.0
2,2, 1, 2, 0,15, 0.00,60.00,Monday         
349,0.0
380,0.0
2,2, 1, 2, 0,16, 0.00,60.00,Monday         
349,0.0
380,0.0
2,2, 1, 2, 0,17, 0.00,60.00,Monday         
349,0.0
380,0.0
2,2, 1, 2, 0,18, 0.00,60.00,Monday         
349,10217.9690776468
380,0.0
2,2, 1, 2, 0,19, 0.00,60.00,Monday         
349,0.0
380,0.0
2,2, 1, 2, 0,20, 0.00,60.00,Monday         
349,172853.960671933
380,0.0
2,2, 1, 2, 0,21, 0.00,60.00,Monday         
349,1353547.15843443
380,0.0
2,2, 1, 2, 0,22, 0.00,60.00,Monday         
349,2012900.96421398
380,0.0
2,2, 1, 2, 0,23, 0.00,60.00,Monday         
349,2380409.78459621
380,0.0
2,2, 1, 2, 0,24, 0.00,60.00,Monday         
349,2608579.15285674
380,0.0
2,3, 1, 3, 0, 1, 0.00,60.00,Tuesday        
349,2884813.61080237
380,0.0
2,3, 1, 3, 0, 2, 0.00,60.00,Tuesday        
349,3047566.2618868
380,0.0
2,3, 1, 3, 0, 3, 0.00,60.00,Tuesday        
349,3162612.26611644
380,0.0
2,3, 1, 3, 0, 4, 0.00,60.00,Tuesday        
349,3337863.05989674
380,0.0
2,3, 1, 3, 0, 5, 0.00,60.00,Tuesday        
349,3208083.99477305
380,0.0
2,3, 1, 3, 0, 6, 0.00,60.00,Tuesday        
349,2710442.81694433
380,0.0
2,3, 1, 3, 0, 7, 0.00,60.00,Tuesday        
349,1512466.51491745
380,0.0
2,3, 1, 3, 0, 8, 0.00,60.00,Tuesday        
349,3659836.47406262
380,0.0
2,3, 1, 3, 0, 9, 0.00,60.00,Tuesday        
349,533907.865695433
380,0.0
2,3, 1, 3, 0,10, 0.00,60.00,Tuesday        
349,30144.3934699854
380,0.0
2,3, 1, 3, 0,11, 0.00,60.00,Tuesday        
349,0.0
380,0.0
2,3, 1, 3, 0,12, 0.00,60.00,Tuesday        
349,0.0
380,0.0
2,3, 1, 3, 0,13, 0.00,60.00,Tuesday        
349,0.0
380,0.0
2,3, 1, 3, 0,14, 0.00,60.00,Tuesday        
349,0.0
380,0.0
2,3, 1, 3, 0,15, 0.00,60.00,Tuesday        
349,0.0
380,0.0
2,3, 1, 3, 0,16, 0.00,60.00,Tuesday        
349,0.0
380,0.0
2,3, 1, 3, 0,17, 0.00,60.00,Tuesday        
349,0.0
380,0.0
2,3, 1, 3, 0,18, 0.00,60.00,Tuesday        
349,0.0
380,0.0
2,3, 1, 3, 0,19, 0.00,60.00,Tuesday        
349,0.0
380,0.0
2,3, 1, 3, 0,20, 0.00,60.00,Tuesday        
349,120570.982382523
380,0.0
2,3, 1, 3, 0,21, 0.00,60.00,Tuesday        
349,1047655.17022054
380,0.0
2,3, 1, 3, 0,22, 0.00,60.00,Tuesday        
349,1798471.56239031
380,0.0
2,3, 1, 3, 0,23, 0.00,60.00,Tuesday        
349,2330053.3552463
380,0.0
2,3, 1, 3, 0,24, 0.00,60.00,Tuesday        
349,2613769.15286062
380,0.0
2,4, 1, 4, 0, 1, 0.00,60.00,Wednesday      
349,2815051.08041429
380,0.0
2,4, 1, 4, 0, 2, 0.00,60.00,Wednesday      
349,2874277.23365365
380,0.0
2,4, 1, 4, 0, 3, 0.00,60.00,Wednesday      
349,2902718.84617792
380,0.0
2,4, 1, 4, 0, 4, 0.00,60.00,Wednesday      
349,3005230.36756532
380,0.0
2,4, 1, 4, 0, 5, 0.00,60.00,Wednesday      
349,2692629.18092543
380,0.0
2,4, 1, 4, 0, 6, 0.00,60.00,Wednesday      
349,2106498.14619486
380,0.0
2,4, 1, 4, 0, 7, 0.00,60.00,Wednesday      
349,1227340.85299924
380,0.0
2,4, 1, 4, 0, 8, 0.00,60.00,Wednesday      
349,3506322.44726046
380,0.0
2,4, 1, 4, 0, 9, 0.00,60.00,Wednesday      
349,314719.739592713
380,0.0
2,4, 1, 4, 0,10, 0.00,60.00,Wednesday      
349,0.0
380,0.0
2,4, 1, 4, 0,11, 0.00,60.00,Wednesday      
349,0.0
380,0.0
2,4, 1, 4, 0,12, 0.00,60.00,Wednesday      
349,0.0
380,0.0
2,4, 1, 4, 0,13, 0.00,60.00,Wednesday      
349,0.0
380,0.0
2,4, 1, 4, 0,14, 0.00,60.00,Wednesday      
349,0.0
380,0.0
2,4, 1, 4, 0,15, 0.00,60.00,Wednesday      
349,0.0
380,0.0
2,4, 1, 4, 0,16, 0.00,60.00,Wednesday      
349,0.0
380,0.0
2,4, 1, 4, 0,17, 0.00,60.00,Wednesday      
349,0.0
380,0.0
2,4, 1, 4, 0,18, 0.00,60.00,Wednesday      
349,0.0
380,0.0
2,4, 1, 4, 0,19, 0.00,60.00,Wednesday      
349,0.0
380,0.0
2,4, 1, 4, 0,20, 0.00,60.00,Wednesday      
349,407846.669706468
380,0.0
2,4, 1, 4, 0,21, 0.00,60.00,Wednesday      
349,1487615.01927386
380,0.0
2,4, 1, 4, 0,22, 0.00,60.00,Wednesday      
349,1966709.1504619
380,0.0
2,4, 1, 4, 0,23, 0.00,60.00,Wednesday      
349,2261908.76799113
380,0.0
2,4, 1, 4, 0,24, 0.00,60.00,Wednesday      
349,2334564.72392697
380,0.0
2,5, 1, 5, 0, 1, 0.00,60.00,Thursday       
349,2380094.98200577
380,0.0
2,5, 1, 5, 0, 2, 0.00,60.00,Thursday       
349,2400222.57255561
380,0.0
2,5, 1, 5, 0, 3, 0.00,60.00,Thursday       
349,2323441.04637505
380,0.0
2,5, 1, 5, 0, 4, 0.00,60.00,Thursday       
349,2294190.6854032
380,0.0
2,5, 1, 5, 0, 5, 0.00,60.00,Thursday       
349,2261049.86648517
380,0.0
2,5, 1, 5, 0, 6, 0.00,60.00,Thursday       
349,1949135.62751172
380,0.0
2,5, 1, 5, 0, 7, 0.00,60.00,Thursday       
349,968390.768934049
380,0.0
2,5, 1, 5, 0, 8, 0.00,60.00,Thursday       
349,3344915.82859447
380,0.0
2,5, 1, 5, 0, 9, 0.00,60.00,Thursday       
349,214848.312629384
380,0.0
2,5, 1, 5, 0,10, 0.00,60.00,Thursday       
349,0.0
380,0.0
2,5, 1, 5, 0,11, 0.00,60.00,Thursday       
349,0.0
380,0.0
2,5, 1, 5, 0,12, 0.00,60.00,Thursday       
349,0.0
380,0.0
2,5, 1, 5, 0,13, 0.00,60.00,Thursday       
349,0.0
380,0.0
2,5, 1, 5, 0,14, 0.00,60.00,Thursday       
349,0.0
380,0.0
2,5, 1, 5, 0,15, 0.00,60.00,Thursday       
349,0.0
380,0.0
2,5, 1, 5, 0,16, 0.00,60.00,Thursday       
349,0.0
380,0.0
2,5, 1, 5, 0,17, 0.00,60.00,Thursday       
349,0.0
380,0.0
2,5, 1, 5, 0,18, 0.00,60.00,Thursday       
349,34428.7380992474
380,0.0
2,5, 1, 5, 0,19, 0.00,60.00,Thursday       
349,0.0
380,0.0
2,5, 1, 5, 0,20, 0.00,60.00,Thursday       
349,339389.031668058
380,0.0
2,5, 1, 5, 0,21, 0.00,60.00,Thursday       
349,1237710.1508677
380,0.0
2,5, 1, 5, 0,22, 0.00,60.00,Thursday       
349,1555820.58151705
380,0.0
2,5, 1, 5, 0,23, 0.00,60.00,Thursday       
349,1596167.40041966
380,0.0
2,5, 1, 5, 0,24, 0.00,60.00,Thursday       
349,1664181.08745891
380,0.0
2,6, 1, 6, 0, 1, 0.00,60.00,Friday         
349,1678235.34149377
380,0.0
2,6, 1, 6, 0, 2, 0.00,60.00,Friday         
349,1691342.29878078
380,0.0
2,6, 1, 6, 0, 3, 0.00,60.00,Friday         
349,1746430.22974295
380,0.0
2,6, 1, 6, 0, 4, 0.00,60.00,Friday         
349,1763296.01017021
380,0.0
2,6, 1, 6, 0, 5, 0.00,60.00,Friday         
349,1685881.36849198
380,0.0
2,6, 1, 6, 0, 6, 0.00,60.00,Friday         
349,1409357.307639
380,0.0
2,6, 1, 6, 0, 7, 0.00,60.00,Friday         
349,497390.504686932
380,0.0
2,6, 1, 6, 0, 8, 0.00,60.00,Friday         
349,2934398.89467688
380,0.0
2,6, 1, 6, 0, 9, 0.00,60.00,Friday         
349,32578.9329236544
380,0.0
2,6, 1, 6, 0,10, 0.00,60.00,Friday         
349,0.0
380,0.0
2,6, 1, 6, 0,11, 0.00,60.00,Friday         
349,0.0
380,0.0
2,6, 1, 6, 0,12, 0.00,60.00,Friday         
349,0.0
380,0.0
2,6, 1, 6, 0,13, 0.00,60.00,Friday         
349,0.0
380,0.0
2,6, 1, 6, 0,14, 0.00,60.00,Friday         
349,0.0
380,0.0
2,6, 1, 6, 0,15, 0.00,60.00,Friday         
349,0.0
380,0.0
2,6, 1, 6, 0,16, 0.00,60.00,Friday         
349,0.0
380,0.0
2,6, 1, 6, 0,17, 0.00,60.00,Friday         
349,0.0
380,0.0
2,6, 1, 6, 0,18, 0.00,60.00,Friday         
349,0.0
380,0.0
2,6, 1, 6, 0,19, 0.00,60.00,Friday         
349,0.0
380,0.0
2,6, 1, 6, 0,20, 0.00,60.00,Friday         
349,0.0
380,0.0
2,6, 1, 6, 0,21, 0.00,60.00,Friday         
349,0.0
380,0.0
2,6, 1, 6, 0,22, 0.00,60.00,Friday         
349,0.0
380,0.0
2,6, 1, 6, 0,23, 0.00,60.00,Friday         
349,0.0
380,0.0
2,6, 1, 6, 0,24, 0.00,60.00,Friday         
349,0.0
380,0.0
2,7, 1, 7, 0, 1, 0.00,60.00,Saturday       
349,33000.4760151591
380,0.0
2,7, 1, 7, 0, 2, 0.00,60.00,Saturday       
349,367767.955306541
380,0.0
2,7, 1, 7, 0, 3, 0.00,60.00,Saturday       
349,412360.32911682
380,0.0
2,7, 1, 7, 0, 4, 0.00,60.00,Saturday       
349,448305.44358151
380,0.0
2,7, 1, 7, 0, 5, 0.00,60.00,Saturday       
349,490308.541641839
380,0.0
2,7, 1, 7, 0, 6, 0.00,60.00,Saturday       
349,456985.813428293
380,0.0
2,7, 1, 7, 0, 7, 0.00,60.00,Saturday       
349,219262.364776042
380,0.0
2,7, 1, 7, 0, 8, 0.00,60.00,Saturday       
349,3714770.3795451
380,0.0
2,7, 1, 7, 0, 9, 0.00,60.00,Saturday       
349,970485.444791232
380,0.0
2,7, 1, 7, 0,10, 0.00,60.00,Saturday       
349,278697.161235098
380,0.0
2,7, 1, 7, 0,11, 0.00,60.00,Saturday       
349,497.831081335859
380,0.0
2,7, 1, 7, 0,12, 0.00,60.00,Saturday       
349,0.0
380,0.0
2,7, 1, 7, 0,13, 0.00,60.00,Saturday       
349,0.0
380,0.0
2,7, 1, 7, 0,14, 0.00,60.00,Saturday       
349,42761.1515229344
380,0.0
2,7, 1, 7, 0,15, 0.00,60.00,Saturday       
349,0.0
380,0.0
2,7, 1, 7, 0,16, 0.00,60.00,Saturday       
349,0.0
380,0.0
2,7, 1, 7, 0,17, 0.00,60.00,Saturday       
349,205410.431548116
380,0.0
2,7, 1, 7, 0,18, 0.00,60.00,Saturday       
349,796819.69703142
380,0.0
2,7, 1, 7, 0,19, 0.00,60.00,Saturday       
349,0.0
380,0.0
2,7, 1, 7, 0,20, 0.00,60.00,Saturday       
349,4163.50602006697
380,0.0
2,7, 1, 7, 0,21, 0.00,60.00,Saturday       
349,325526.397046823
380,0.0
2,7, 1, 7, 0,22, 0.00,60.00,Saturday       
349,673820.645979523
380,0.0
2,7, 1, 7, 0,23, 0.00,60.00,Saturday       
349,780194.987942141
380,0.0
2,7, 1, 7, 0,24, 0.00,60.00,Saturday       
349,839378.720172158
380,0.0
2,8, 1, 8, 0, 1, 0.00,60.00,Sunday         
349,1026141.87249529
380,0.0
2,8, 1, 8, 0, 2, 0.00,60.00,Sunday         
349,1113190.74535321
380,0.0
2,8, 1, 8, 0, 3, 0.00,60.00,Sunday         
349,1176243.47135281
380,0.0
2,8, 1, 8, 0, 4, 0.00,60.00,Sunday         
349,1134575.7175256
380,0.0
2,8, 1, 8, 0, 5, 0.00,60.00,Sunday         
349,1104522.17701747
380,0.0
2,8, 1, 8, 0, 6, 0.00,60.00,Sunday         
349,1143681.46064339
380,0.0
2,8, 1, 8, 0, 7, 0.00,60.00,Sunday         
349,1263967.45557223
380,0.0
2,8, 1, 8, 0, 8, 0.00,60.00,Sunday         
349,5020210.02885836
380,0.0
2,8, 1, 8, 0, 9, 0.00,60.00,Sunday         
349,2297137.92711075
380,0.0
2,8, 1, 8, 0,10, 0.00,60.00,Sunday         
349,1569912.6588944
380,0.0
2,8, 1, 8, 0,11, 0.00,60.00,Sunday         
349,1101113.44559947
380,0.0
2,8, 1, 8, 0,12, 0.00,60.00,Sunday         
349,681763.11194371
380,0.0
2,8, 1, 8, 0,13, 0.00,60.00,Sunday         
349,400440.406979415
380,0.0
2,8, 1, 8, 0,14, 0.00,60.00,Sunday         
349,203892.191758672
380,0.0
2,8, 1, 8, 0,15, 0.00,60.00,Sunday         
349,212668.240169451
380,0.0
2,8, 1, 8, 0,16, 0.00,60.00,Sunday         
349,372692.993609389
380,0.0
2,8, 1, 8, 0,17, 0.00,60.00,Sunday         
349,736043.323788913
380,0.0
2,8, 1, 8, 0,18, 0.00,60.00,Sunday         
349,1219924.55146507
380,0.0
2,8, 1, 8, 0,19, 0.00,60.00,Sunday         
349,23867.2940004587
380,0.0
2,8, 1, 8, 0,20, 0.00,60.00,Sunday         
349,396608.855996677
380,0.0
2,8, 1, 8, 0,21, 0.00,60.00,Sunday         
349,1376247.37900258
380,0.0
2,8, 1, 8, 0,22, 0.00,60.00,Sunday         
349,1964944.17026344
380,0.0
2,8, 1, 8, 0,23, 0.00,60.00,Sunday         
349,2405630.34300857
380,0.0
2,8, 1, 8, 0,24, 0.00,60.00,Sunday         
349,2602946.591161
380,0.0
2,9, 1, 9, 0, 1, 0.00,60.00,Monday         
349,2686080.28322848
380,0.0
2,9, 1, 9, 0, 2, 0.00,60.00,Monday         
349,2749134.11772647
380,0.0
2,9, 1, 9, 0, 3, 0.00,60.00,Monday         
349,2769832.57953443
380,0.0
2,9, 1, 9, 0, 4, 0.00,60.00,Monday         
349,2623866.59807396
380,0.0
2,9, 1, 9, 0, 5, 0.00,60.00,Monday         
349,2360454.17976947
380,0.0
2,9, 1, 9, 0, 6, 0.00,60.00,Monday         
349,2008996.80432587
380,0.0
2,9, 1, 9, 0, 7, 0.00,60.00,Monday         
349,1081884.87790819
380,0.0
2,9, 1, 9, 0, 8, 0.00,60.00,Monday         
349,3329399.83920323
380,0.0
2,9, 1, 9, 0, 9, 0.00,60.00,Monday         
349,147886.565890755
380,0.0
2,9, 1, 9, 0,10, 0.00,60.00,Monday         
349,0.0
380,0.0
2,9, 1, 9, 0,11, 0.00,60.00,Monday         
349,0.0
380,0.0
2,9, 1, 9, 0,12, 0.00,60.00,Monday         
349,0.0
380,0.0
2,9, 1, 9, 0,13, 0.00,60.00,Monday         
349,0.0
380,0.0
2,9, 1, 9, 0,14, 0.00,60.00,Monday         
349,0.0
380,0.0
2,9, 1, 9, 0,15, 0.00,60.00,Monday         
349,0.0
380,0.0
2,9, 1, 9, 0,16, 0.00,60.00,Monday         
349,0.0
380,0.0
2,9, 1, 9, 0,17, 0.00,60.00,Monday         
349,0.0
380,0.0
2,9, 1, 9, 0,18, 0.00,60.00,Monday         
349,8358.66513395608
380,0.0
2,9, 1, 9, 0,19, 0.00,60.00,Monday         
349,0.0
380,0.0
2,9, 1, 9, 0,20, 0.00,60.00,Monday         
349,226030.878416667
380,0.0
2,9, 1, 9, 0,21, 0.00,60.00,Monday         
349,1287894.95185424
380,0.0
2,9, 1, 9, 0,22, 0.00,60.00,Monday         
349,1846325.51730513
380,0.0
2,9, 1, 9, 0,23, 0.00,60.00,Monday         
349,2307746.32764939
380,0.0
2,9, 1, 9, 0,24, 0.00,60.00,Monday         
349,2428844.40540474
380,0.0
2,10, 1,10, 0, 1, 0.00,60.00,Tuesday        
349,2491776.77596367
380,0.0
2,10, 1,10, 0, 2, 0.00,60.00,Tuesday        
349,2466067.78388111
380,0.0
2,10, 1,10, 0, 3, 0.00,60.00,Tuesday        
349,2390843.30915907
380,0.0
2,10, 1,10, 0, 4, 0.00,60.00,Tuesday        
349,2342263.19421917
380,0.0
2,10, 1,10, 0, 5, 0.00,60.00,Tuesday        
349,2211491.90905109
380,0.0
2,10, 1,10, 0, 6, 0.00,60.00,Tuesday        
349,1910823.03679308
380,0.0
2,10, 1,10, 0, 7, 0.00,60.00,Tuesday        
349,976013.650704018
380,0.0
2,10, 1,10, 0, 8, 0.00,60.00,Tuesday        
349,3265695.59464484
380,0.0
2,10, 1,10, 0, 9, 0.00,60.00,Tuesday        
349,121048.271589812
380,0.0
2,10, 1,10, 0,10, 0.00,60.00,Tuesday        
349,0.0
380,0.0
2,10, 1,10, 0,11, 0.00,60.00,Tuesday        
349,0.0
380,0.0
2,10, 1,10, 0,12, 0.00,60.00,Tuesday        
349,0.0
380,0.0
2,10, 1,10, 0,13, 0.00,60.00,Tuesday        
349,0.0
380,0.0
2,10, 1,10, 0,14, 0.00,60.00,Tuesday        
349,0.0
380,0.0
2,10, 1,10, 0,15, 0.00,60.00,Tuesday        
349,0.0
380,0.0
2,10, 1,10, 0,16, 0.00,60.00,Tuesday        
349,0.0
380,0.0
2,10, 1,10, 0,17, 0.00,60.00,Tuesday        
349,0.0
380,0.0
2,10, 1,10, 0,18, 0.00,60.00,Tuesday        
349,0.0
380,0.0
2,10, 1,10, 0,19, 0.00,60.00,Tuesday        
349,0.0
380,0.0
2,10, 1,10, 0,20, 0.00,60.00,Tuesday        
349,38118.4691890351
380,0.0
2,10, 1,10, 0,21, 0.00,60.00,Tuesday        
349,782170.942015649
380,0.0
2,10, 1,10, 0,22, 0.00,60.00,Tuesday        
349,1254013.63008108
380,0.0
2,10, 1,10, 0,23, 0.00,60.00,Tuesday        
349,1720567.37856052
380,0.0
2,10, 1,10, 0,24, 0.00,60.00,Tuesday        
349,2188580.06406204
380,0.0
2,11, 1,11, 0, 1, 0.00,60.00,Wednesday      
349,2327501.55023205
380,0.0
2,11, 1,11, 0, 2, 0.00,60.00,Wednesday      
349,2306868.77583415
380,0.0
2,11, 1,11, 0, 3, 0.00,60.00,Wednesday      
349,2322169.86689913
380,0.0
2,11, 1,11, 0, 4, 0.00,60.00,Wednesday      
349,2321958.05473265
380,0.0
2,11, 1,11, 0, 5, 0.00,60.00,Wednesday      
349,2119966.07168217
380,0.0
2,11, 1,11, 0, 6, 0.00,60.00,Wednesday      
349,1827010.34889317
380,0.0
2,11, 1,11, 0, 7, 0.00,60.00,Wednesday      
349,1075419.29625894
380,0.0
2,11, 1,11, 0, 8, 0.00,60.00,Wednesday      
349,3493186.86030593
380,0.0
2,11, 1,11, 0, 9, 0.00,60.00,Wednesday      
349,237428.587186825
380,0.0
2,11, 1,11, 0,10, 0.00,60.00,Wednesday      
349,0.0
380,0.0
2,11, 1,11, 0,11, 0.00,60.00,Wednesday      
349,0.0
380,0.0
2,11, 1,11, 0,12, 0.00,60.00,Wednesday      
349,0.0
380,0.0
2,11, 1,11, 0,13, 0.00,60.00,Wednesday      
349,0.0
380,0.0
2,11, 1,11, 0,14, 0.00,60.00,Wednesday      
349,0.0
380,0.0
2,11, 1,11, 0,15, 0.00,60.00,Wednesday      
349,0.0
380,0.0
2,11, 1,11, 0,16, 0.00,60.00,Wednesday      
349,0.0
380,0.0
2,11, 1,11, 0,17, 0.00,60.00,Wednesday      
349,0.0
380,0.0
2,11, 1,11, 0,18, 0.00,60.00,Wednesday      
349,0.0
380,0.0
2,11, 1,11, 0,19, 0.00,60.00,Wednesday      
349,0.0
380,0.0
2,11, 1,11, 0,20, 0.00,60.00,Wednesday      
349,251403.747048672
380,0.0
2,11, 1,11, 0,21, 0.00,60.00,Wednesday      
349,1380124.96770834
380,0.0
2,11, 1,11, 0,22, 0.00,60.00,Wednesday      
349,1851921.07769446
380,0.0
2,11, 1,11, 0,23, 0.00,60.00,Wednesday      
349,2376918.61007575
380,0.0
2,11, 1,11, 0,24, 0.00,60.00,Wednesday      
349,2568507.91690621
380,0.0
2,12, 1,12, 0, 1, 0.00,60.00,Thursday       
349,2246086.77928991
380,0.0
2,12, 1,12, 0, 2, 0.00,60.00,Thursday       
349,2056434.34360411
380,0.0
2,12, 1,12, 0, 3, 0.00,60.00,Thursday       
349,2139649.05580306
380,0.0
2,12, 1,12, 0, 4, 0.00,60.00,Thursday       
349,1984451.826133
380,0.0
2,12, 1,12, 0, 5, 0.00,60.00,Thursday       
349,1595991.70834725
380,0.0
2,12, 1,12, 0, 6, 0.00,60.00,Thursday       
349,1316711.56583447
380,0.0
2,12, 1,12, 0, 7, 0.00,60.00,Thursday       
349,259599.077221316
380,0.0
2,12, 1,12, 0, 8, 0.00,60.00,Thursday       
349,2553029.69349982
380,0.0
2,12, 1,12, 0, 9, 0.00,60.00,Thursday       
349,0.0
380,0.0
2,12, 1,12, 0,10, 0.00,60.00,Thursday       
349,0.0
380,0.0
2,12, 1,12, 0,11, 0.00,60.00,Thursday       
349,0.0
380,0.0
2,12, 1,12, 0,12, 0.00,60.00,Thursday       
349,0.0
380,0.0
2,12, 1,12, 0,13, 0.00,60.00,Thursday       
349,0.0
380,0.0
2,12, 1,12, 0,14, 0.00,60.00,Thursday       
349,0.0
380,0.0
2,12, 1,12, 0,15, 0.00,60.00,Thursday       
349,0.0
380,0.0
2,12, 1,12, 0,16, 0.00,60.00,Thursday       
349,0.0
380,0.0
2,12, 1,12, 0,17, 0.00,60.00,Thursday       
349,0.0
380,0.0
2,12, 1,12, 0,18, 0.00,60.00,Thursday       
349,0.0
380,0.0
2,12, 1,12, 0,19, 0.00,60.00,Thursday       
349,0.0
380,0.0
2,12, 1,12, 0,20, 0.00,60.00,Thursday       
349,404353.958884952
380,0.0
2,12, 1,12, 0,21, 0.00,60.00,Thursday       
349,1613933.41638345
380,0.0
2,12, 1,12, 0,22, 0.00,60.00,Thursday       
349,2193892.37433731
380,0.0
2,12, 1,12, 0,23, 0.00,60.00,Thursday       
349,2754027.93553546
380,0.0
2,12, 1,12, 0,24, 0.00,60.00,Thursday       
349,3027171.91770375
380,0.0
2,13, 1,13, 0, 1, 0.00,60.00,Friday         
349,3084168.65735879
380,0.0
2,13, 1,13, 0, 2, 0.00,60.00,Friday         
349,2996121.90275785
380,0.0
2,13, 1,13, 0, 3, 0.00,60.00,Friday         
349,2944164.78592801
380,0.0
2,13, 1,13, 0, 4, 0.00,60.00,Friday         
349,2936934.11735937
380,0.0
2,13, 1,13, 0, 5, 0.00,60.00,Friday         
349,2829913.05578732
380,0.0
2,13, 1,13, 0, 6, 0.00,60.00,Friday         
349,2558856.1159397
380,0.0
2,13, 1,13, 0, 7, 0.00,60.00,Friday         
349,1564330.97422643
380,0.0
2,13, 1,13, 0, 8, 0.00,60.00,Friday         
349,3811537.64420581
380,0.0
2,13, 1,13, 0, 9, 0.00,60.00,Friday         
349,583781.371449444
380,0.0
2,13, 1,13, 0,10, 0.00,60.00,Friday         
349,873.253796448579
380,0.0
2,13, 1,13, 0,11, 0.00,60.00,Friday         
349,0.0
380,0.0
2,13, 1,13, 0,12, 0.00,60.00,Friday         
349,0.0
380,0.0
2,13, 1,13, 0,13, 0.00,60.00,Friday         
349,0.0
380,0.0
2,13, 1,13, 0,14, 0.00,60.00,Friday         
349,0.0
380,0.0
2,13, 1,13, 0,15, 0.00,60.00,Friday         
349,0.0
380,0.0
2,13, 1,13, 0,16, 0.00,60.00,Friday         
349,0.0
380,0.0
2,13, 1,13, 0,17, 0.00,60.00,Friday         
349,0.0
380,0.0
2,13, 1,13, 0,18, 0.00,60.00,Friday         
349,0.0
380,0.0
2,13, 1,13, 0,19, 0.00,60.00,Friday         
349,0.0
380,0.0
2,13, 1,13, 0,20, 0.00,60.00,Friday         
349,536617.741331788
380,0.0
2,13, 1,13, 0,21, 0.00,60.00,Friday         
349,1644886.64889549
380,0.0
2,13, 1,13, 0,22, 0.00,60.00,Friday         
349,1994736.61363367
380,0.0
2,13, 1,13, 0,23, 0.00,60.00,Friday         
349,2249516.14406088
380,0.0
2,13, 1,13, 0,24, 0.00,60.00,Friday         
349,2497142.64245504
380,0.0
2,14, 1,14, 0, 1, 0.00,60.00,Saturday       
349,2562214.30621193
380,0.0
2,14, 1,14, 0, 2, 0.00,60.00,Saturday       
349,2722177.86943948
380,0.0
2,14, 1,14, 0, 3, 0.00,60.00,Saturday       
349,2884567.08299015
380,0.0
2,14, 1,14, 0, 4, 0.00,60.00,Saturday       
349,2823361.76835339
380,0.0
2,14, 1,14, 0, 5, 0.00,60.00,Saturday       
349,2738796.34147585
380,0.0
2,14, 1,14, 0, 6, 0.00,60.00,Saturday       
349,2669969.47047623
380,0.0
2,14, 1,14, 0, 7, 0.00,60.00,Saturday       
349,2390644.31947896
380,0.0
2,14, 1,14, 0, 8, 0.00,60.00,Saturday       
349,5408188.47478639
380,0.0
2,14, 1,14, 0, 9, 0.00,60.00,Saturday       
349,2848819.43171652
380,0.0
2,14, 1,14, 0,10, 0.00,60.00,Saturday       
349,2110724.27657545
380,0.0
2,14, 1,14, 0,11, 0.00,60.00,Saturday       
349,1684571.49826255
380,0.0
2,14, 1,14, 0,12, 0.00,60.00,Saturday       
349,1311349.60713696
380,0.0
2,14, 1,14, 0,13, 0.00,60.00,Saturday       
349,854915.513343719
380,0.0
2,14, 1,14, 0,14, 0.00,60.00,Saturday       
349,590634.54971719
380,0.0
2,14, 1,14, 0,15, 0.00,60.00,Saturday       
349,732544.744290182
380,0.0
2,14, 1,14, 0,16, 0.00,60.00,Saturday       
349,870591.176902872
380,0.0
2,14, 1,14, 0,17, 0.00,60.00,Saturday       
349,1370656.64335421
380,0.0
2,14, 1,14, 0,18, 0.00,60.00,Saturday       
349,2283862.2715769
380,0.0
2,14, 1,14, 0,19, 0.00,60.00,Saturday       
349,544168.333262234
380,0.0
2,14, 1,14, 0,20, 0.00,60.00,Saturday       
349,2013375.86026444
380,0.0
2,14, 1,14, 0,21, 0.00,60.00,Saturday       
349,2641943.1982423
380,0.0
2,14, 1,14, 0,22, 0.00,60.00,Saturday       
349,2846223.23572789
380,0.0
2,14, 1,14, 0,23, 0.00,60.00,Saturday       
349,2903774.3743915
380,0.0
2,14, 1,14, 0,24, 0.00,60.00,Saturday       
349,3148272.87716806
380,0.0
2,15, 1,15, 0, 1, 0.00,60.00,Sunday         
349,3491547.19187809
380,0.0
2,15, 1,15, 0, 2, 0.00,60.00,Sunday         
349,3624596.5973867
380,0.0
2,15, 1,15, 0, 3, 0.00,60.00,Sunday         
349,3649202.52493078
380,0.0
2,15, 1,15, 0, 4, 0.00,60.00,Sunday         
349,3727786.06856675
380,0.0
2,15, 1,15, 0, 5, 0.00,60.00,Sunday         
349,3886057.6654235
380,0.0
2,15, 1,15, 0, 6, 0.00,60.00,Sunday         
349,3847957.97097159
380,0.0
2,15, 1,15, 0, 7, 0.00,60.00,Sunday         
349,3837654.75544446
380,0.0
2,15, 1,15, 0, 8, 0.00,60.00,Sunday         
349,7031967.88320812
380,0.0
2,15, 1,15, 0, 9, 0.00,60.00,Sunday         
349,4527019.68245736
380,0.0
2,15, 1,15, 0,10, 0.00,60.00,Sunday         
349,3613899.01516031
380,0.0
2,15, 1,15, 0,11, 0.00,60.00,Sunday         
349,2967993.00106467
380,0.0
2,15, 1,15, 0,12, 0.00,60.00,Sunday         
349,2505333.19247826
380,0.0
2,15, 1,15, 0,13, 0.00,60.00,Sunday         
349,2093325.57383208
380,0.0
2,15, 1,15, 0,14, 0.00,60.00,Sunday         
349,1834849.12004529
380,0.0
2,15, 1,15, 0,15, 0.00,60.00,Sunday         
349,1770672.23702632
380,0.0
2,15, 1,15, 0,16, 0.00,60.00,Sunday         
349,1962314.67277976
380,0.0
2,15, 1,15, 0,17, 0.00,60.00,Sunday         
349,2235872.56222135
380,0.0
2,15, 1,15, 0,18, 0.00,60.00,Sunday         
349,2575039.58872668
380,0.0
2,15, 1,15, 0,19, 0.00,60.00,Sunday         
349,349294.348005647
380,0.0
2,15, 1,15, 0,20, 0.00,60.00,Sunday         
349,1707404.43703025
380,0.0
2,15, 1,15, 0,21, 0.00,60.00,Sunday         
349,2364507.2998496
380,0.0
2,15, 1,15, 0,22, 0.00,60.00,Sunday         
349,2688636.59426783
380,0.0
2,15, 1,15, 0,23, 0.00,60.00,Sunday         
349,2869174.74632573
380,0.0
2,15, 1,15, 0,24, 0.00,60.00,Sunday         
349,3072958.93013066
380,0.0
2,16, 1,16, 0, 1, 0.00,60.00,Monday         
349,3267223.20998829
380,0.0
2,16, 1,16, 0, 2, 0.00,60.00,Monday         
349,3209662.73093764
380,0.0
2,16, 1,16, 0, 3, 0.00,60.00,Monday         
349,3129792.25022622
380,0.0
2,16, 1,16, 0, 4, 0.00,60.00,Monday         
349,3037159.25061562
380,0.0
2,16, 1,16, 0, 5, 0.00,60.00,Monday         
349,2821980.33645924
380,0.0
2,16, 1,16, 0, 6, 0.00,60.00,Monday         
349,2505027.42019864
380,0.0
2,16, 1,16, 0, 7, 0.00,60.00,Monday         
349,1528989.88430766
380,0.0
2,16, 1,16, 0, 8, 0.00,60.00,Monday         
349,3752358.98596715
380,0.0
2,16, 1,16, 0, 9, 0.00,60.00,Monday         
349,615727.421287013
380,0.0
2,16, 1,16, 0,10, 0.00,60.00,Monday         
349,7707.19408097408
380,0.0
2,16, 1,16, 0,11, 0.00,60.00,Monday         
349,0.0
380,0.0
2,16, 1,16, 0,12, 0.00,60.00,Monday         
349,0.0
380,0.0
2,16, 1,16, 0,13, 0.00,60.00,Monday         
349,0.0
380,0.0
2,16, 1,16, 0,14, 0.00,60.00,Monday         
349,0.0
380,0.0
2,16, 1,16, 0,15, 0.00,60.00,Monday         
349,0.0
380,0.0
2,16, 1,16, 0,16, 0.00,60.00,Monday         
349,0.0
380,0.0
2,16, 1,16, 0,17, 0.00,60.00,Monday         
349,0.0
380,0.0
2,16, 1,16, 0,18, 0.00,60.00,Monday         
349,24192.345953957
380,0.0
2,16, 1,16, 0,19, 0.00,60.00,Monday         
349,0.0
380,0.0
2,16, 1,16, 0,20, 0.00,60.00,Monday         
349,847798.981817679
380,0.0
2,16, 1,16, 0,21, 0.00,60.00,Monday         
349,1845189.4535573
380,0.0
2,16, 1,16, 0,22, 0.00,60.00,Monday         
349,2432303.61602163
380,0.0
2,16, 1,16, 0,23, 0.00,60.00,Monday         
349,2813924.54940417
380,0.0
2,16, 1,16, 0,24, 0.00,60.00,Monday         
349,2726750.27218438
380,0.0
2,17, 1,17, 0, 1, 0.00,60.00,Tuesday        
349,2717269.15533605
380,0.0
2,17, 1,17, 0, 2, 0.00,60.00,Tuesday        
349,2858616.53109639
380,0.0
2,17, 1,17, 0, 3, 0.00,60.00,Tuesday        
349,2976522.8427041
380,0.0
2,17, 1,17, 0, 4, 0.00,60.00,Tuesday        
349,3072429.67391338
380,0.0
2,17, 1,17, 0, 5, 0.00,60.00,Tuesday        
349,2832141.57306195
380,0.0
2,17, 1,17, 0, 6, 0.00,60.00,Tuesday        
349,2329849.03560473
380,0.0
2,17, 1,17, 0, 7, 0.00,60.00,Tuesday        
349,1348133.75041666
380,0.0
2,17, 1,17, 0, 8, 0.00,60.00,Tuesday        
349,3469475.17221715
380,0.0
2,17, 1,17, 0, 9, 0.00,60.00,Tuesday        
349,298077.498245842
380,0.0
2,17, 1,17, 0,10, 0.00,60.00,Tuesday        
349,0.0
380,0.0
2,17, 1,17, 0,11, 0.00,60.00,Tuesday        
349,0.0
380,0.0
2,17, 1,17, 0,12, 0.00,60.00,Tuesday        
349,0.0
380,0.0
2,17, 1,17, 0,13, 0.00,60.00,Tuesday        
349,0.0
380,0.0
2,17, 1,17, 0,14, 0.00,60.00,Tuesday        
349,0.0
380,0.0
2,17, 1,17, 0,15, 0.00,60.00,Tuesday        
349,0.0
380,0.0
2,17, 1,17, 0,16, 0.00,60.00,Tuesday        
349,0.0
380,0.0
2,17, 1,17, 0,17, 0.00,60.00,Tuesday        
349,0.0
380,0.0
2,17, 1,17, 0,18, 0.00,60.00,Tuesday        
349,0.0
380,0.0
2,17, 1,17, 0,19, 0.00,60.00,Tuesday        
349,0.0
380,0.0
2,17, 1,17, 0,20, 0.00,60.00,Tuesday        
349,673719.370045229
380,0.0
2,17, 1,17, 0,21, 0.00,60.00,Tuesday        
349,1643181.4413788
380,0.0
2,17, 1,17, 0,22, 0.00,60.00,Tuesday        
349,2013177.26391568
380,0.0
2,17, 1,17, 0,23, 0.00,60.00,Tuesday        
349,2262737.05432769
380,0.0
2,17, 1,17, 0,24, 0.00,60.00,Tuesday        
349,2393335.8118615
380,0.0
2,18, 1,18, 0, 1, 0.00,60.00,Wednesday      
349,2479325.48890413
380,0.0
2,18, 1,18, 0, 2, 0.00,60.00,Wednesday      
349,2508140.83254318
380,0.0
2,18, 1,18, 0, 3, 0.00,60.00,Wednesday      
349,2519368.45587524
380,0.0
2,18, 1,18, 0, 4, 0.00,60.00,Wednesday      
349,2523741.68122856
380,0.0
2,18, 1,18, 0, 5, 0.00,60.00,Wednesday      
349,2318594.82550172
380,0.0
2,18, 1,18, 0, 6, 0.00,60.00,Wednesday      
349,1932659.95280583
380,0.0
2,18, 1,18, 0, 7, 0.00,60.00,Wednesday      
349,992170.951673616
380,0.0
2,18, 1,18, 0, 8, 0.00,60.00,Wednesday      
349,3277495.16251353
380,0.0