Program Version,EnergyPlus, Version 8.8, YMD=2015.03.22 20:57
1,5,Environment Title[],Latitude[deg],Longitude[deg],Time Zone[],Elevation[m]
2,6,Day of Simulation[],Month[],Day of Month[],DST Indicator[1=yes 0=no],Hour[],StartMinute[],EndMinute[],DayType
3,3,Cumulative Day of Simulation[],Month[],Day of Month[],DST Indicator[1=yes 0=no],DayType  ! When Daily Report Variables Requested
4,2,Cumulative Days of Simulation[],Month[]  ! When Monthly Report Variables Requested
5,1,Cumulative Days of Simulation[] ! When Run Period Report Variables Requested
163,1,ZONE1,Zone Opaque Surface Inside Faces Total Conduction Heat Gain Energy [J] !Hourly
164,1,ZONE1,Zone Opaque Surface Inside Faces Total Conduction Heat Loss Energy [J] !Hourly
240,1,ZONE1,Zone Thermostat Air Temperature [C] !Hourly
334,1,OFFICE,Zone Thermal Comfort Fanger Model PMV [] !Hourly
335,1,OFFICE,Zone Thermal Comfort Fanger Model PPD [%] !Hourly
336,1,OFFICE,Zone Thermal Comfort Clothing Surface Temperature [C] !Hourly
337,1,OFFICE,Zone Thermal Comfort Mean Radiant Temperature [C] !Hourly
338,1,OFFICE,Zone Thermal Comfort Operative Temperature [C] !Hourly
346,1,ZONE1,Zone Thermal Comfort ASHRAE 55 Simple Model Summer or Winter Clothes Not Comfortable Time [hr] !Hourly
399,1,BLOCK1:ZONE1 IDEAL LOADS AIR SYSTEM,Zone Ideal Loads Supply Air Total Heating Rate [W] !Hourly
400,1,BLOCK1:ZONE1 IDEAL LOADS AIR SYSTEM,Zone Ideal Loads Supply Air Total Cooling Rate [W] !Hourly
349,1,DistrictHeating:HVAC [J] !Hourly
380,1,DistrictCooling:HVAC [J] !Hourly
End of Data Dictionary
1,ANNUAL,  45.53,-122.95,  -8.00,  62.00
2,1, 1, 1, 0, 1, 0.00,60.00,Sunday         
163,0.0
164,409139.739886388
334,-1.38576257026894
335,44.7548967577718
336,24.799736397113
337,17.4970419968125
338,17.7485209984063
346,0.0
240,18.
399,553.810958275806
400,0.0
349,1993719.4497929
380,0.0
2,1, 1, 1, 0, 2, 0.00,60.00,Sunday         
163,0.0
164,465405.969864302
334,-1.41446938544733
335,46.2846871986227
336,24.7907636710831
337,17.4572996747451
338,17.7286498373726
346,0.0
240,18.
399,579.094102767016
400,0.0
349,2084738.76996126
380,0.0
2,1, 1, 1, 0, 3, 0.00,60.00,Sunday         
163,0.0
164,496815.79476437
334,-1.42216431523208
335,46.6965366985777
336,24.7890390668136
337,17.4496596408788
338,17.7248298204394
346,0.0
240,18.
399,577.48447681637
400,0.0
349,2078944.11653893
380,0.0
2,1, 1, 1, 0, 4, 0.00,60.00,Sunday         
163,0.0
164,484199.71498755
334,-1.42098688645691
335,46.6334366964847
336,24.7939021290632
337,17.4712026437727
338,17.7356013218864
346,0.0
240,18.
399,583.810561008545
400,0.0
349,2101718.01963076
380,0.0
2,1, 1, 1, 0, 5, 0.00,60.00,Sunday         
163,0.0
164,468813.108620856
334,-1.41812485305653
335,46.4801422223178
336,24.7970394985443
337,17.4850987900399
338,17.74254939502
346,0.0
240,18.
399,567.621073529099
400,0.0
349,2043435.86470476
380,0.0
2,1, 1, 1, 0, 6, 0.00,60.00,Sunday         
163,0.0
164,491314.875720269
334,-1.41356479844206
335,46.2360838239759
336,24.8000236207234
337,17.4983141913749
338,17.7491570956875
346,0.0
240,18.
399,603.796450363555
400,0.0
349,2173667.2213088
380,0.0
2,1, 1, 1, 0, 7, 0.00,60.00,Sunday         
163,0.0
164,463577.445291496
334,-1.79206783885539
335,66.6095933473894
336,25.6049433948769
337,17.5075635385887
338,17.7537817692943
346,0.0
240,18.
399,627.023004094099
400,0.0
349,2257282.81473876
380,0.0
2,1, 1, 1, 0, 8, 0.00,60.00,Sunday         
163,0.0
164,4310832.19476451
334,-1.19146950971898
335,35.0059251853192
336,26.7456804324168
337,19.1001556072164
338,20.0610680239186
346,1.
240,21.0219804406207
399,1596.36785619355
400,0.0
349,5746924.28229676
380,0.0
2,1, 1, 1, 0, 9, 0.00,60.00,Sunday         
163,0.0
164,1527191.34878175
334,-1.06193625346957
335,28.8037546933061
336,26.9855001944534
337,20.0696329867412
338,20.5348164933706
346,1.
240,21.
399,837.624850144043
400,0.0
349,3015449.46051855
380,0.0
2,1, 1, 1, 0,10, 0.00,60.00,Sunday         
163,0.0
164,832219.16371534
334,-1.02435735173027
335,27.1570023820333
336,27.0367891624442
337,20.3141420732015
338,20.6570710366007
346,1.
240,21.
399,784.880224613453
400,0.0
349,2825568.80860843
380,0.0
2,1, 1, 1, 0,11, 0.00,60.00,Sunday         
163,0.0
164,847132.609689757
334,-1.01062907628553
335,26.5694807007815
336,27.0431392427719
337,20.3519018798577
338,20.6759509399288
346,0.8
240,21.
399,780.477395014107
400,0.0
349,2809718.62205079
380,0.0
2,1, 1, 1, 0,12, 0.00,60.00,Sunday         
163,0.0
164,760664.196503696
334,-0.998123981839694
335,26.0409682685837
336,27.0638001369589
337,20.449943537984
338,20.724971768992
346,0.0
240,21.
399,688.092884869523
400,0.0
349,2477134.38553028
380,0.0
2,1, 1, 1, 0,13, 0.00,60.00,Sunday         
163,0.0
164,638489.205084574
334,-0.996052979384141
335,25.953763226781
336,27.067508035472
337,20.467534058152
338,20.733767029076
346,0.0
240,21.
399,710.114693581955
400,0.0
349,2556412.89689504
380,0.0
2,1, 1, 1, 0,14, 0.00,60.00,Sunday         
163,0.0
164,557546.342956584
334,-0.998303612174212
335,26.0482831385175
336,27.0630011088714
337,20.4461583183006
338,20.7230791591503
346,0.0
240,21.
399,702.939752520787
400,0.0
349,2530583.10907484
380,0.0
2,1, 1, 1, 0,15, 0.00,60.00,Sunday         
163,0.0
164,773840.926157065
334,-0.996296566462131
335,25.9641266817598
336,27.067519206375
337,20.4675836188211
338,20.7337918094106
346,0.0
240,21.
399,631.990722545777
400,0.0
349,2275166.6011648
380,0.0
2,1, 1, 1, 0,16, 0.00,60.00,Sunday         
163,0.0
164,526019.844510564
334,-0.990632535200589
335,25.7269182930013
336,27.0789051960518
337,20.5215692219862
338,20.7607846109931
346,0.0
240,21.
399,659.810786091616
400,0.0
349,2375318.82992982
380,0.0
2,1, 1, 1, 0,17, 0.00,60.00,Sunday         
163,0.0
164,347027.330803871
334,-0.998095703494094
335,26.0396818773103
336,27.0641445678121
337,20.4515789108737
338,20.7257894554369
346,0.25
240,21.
399,664.070508565159
400,0.0
349,2390653.83083457
380,0.0
2,1, 1, 1, 0,18, 0.00,60.00,Sunday         
163,0.0
164,486371.731396654
334,-1.00369831007563
335,26.2756364676895
336,27.0530467879155
337,20.3989303736572
338,20.6994651868286
346,0.85
240,21.
399,659.575845011405
400,0.0
349,2374473.04204106
380,0.0
2,1, 1, 1, 0,19, 0.00,60.00,Sunday         
163,2750298.27514092
164,26703.6969995404
334,-1.52180442920369
335,52.2805821407306
336,26.066431350869
337,19.0988289769357
338,18.7122687372978
346,1.
240,18.3257084976598
399,30.0568189483565
400,0.0
349,108204.548214083
380,0.0
2,1, 1, 1, 0,20, 0.00,60.00,Sunday         
163,586067.158204658
164,0.0
334,-1.7157988449107
335,62.5936981802819
336,25.7043740952029
337,17.9973152175164
338,17.9986576087623
346,1.
240,18.0000000000081
399,282.604018490352
400,0.0
349,1017374.46656527
380,0.0
2,1, 1, 1, 0,21, 0.00,60.00,Sunday         
163,70975.262402644
164,32536.0877720333
334,-1.74791408515004
335,64.2991627598264
336,25.6454837548325
337,17.7048969249094
338,17.8524484624547
346,0.0
240,18.
399,441.985604965485
400,0.0
349,1591148.17787574
380,0.0
2,1, 1, 1, 0,22, 0.00,60.00,Sunday         
163,0.0
164,244387.67148322
334,-1.75520409317967
335,64.6834470997366
336,25.6215135156385
337,17.5882680052748
338,17.7941340026374
346,0.0
240,18.
399,507.247952178457
400,0.0
349,1826092.62784244
380,0.0
2,1, 1, 1, 0,23, 0.00,60.00,Sunday         
163,0.0
164,370599.860507204
334,-1.75922175066876
335,64.8947411863482
336,25.6104977521217
337,17.5346235402348
338,17.7673117701174
346,0.0
240,18.
399,502.062832531513
400,0.0
349,1807426.19711345
380,0.0
2,1, 1, 1, 0,24, 0.00,60.00,Sunday         
163,0.0
164,422106.998000763
334,-1.75874229808853
335,64.8695217995288
336,25.6060565199161
337,17.5129871286872
338,17.7564935643436
346,0.0
240,18.
399,499.882924266905
400,0.0
349,1799578.52736086
380,0.0
2,2, 1, 2, 0, 1, 0.00,60.00,Monday         
163,0.0
164,432333.784663176
334,-1.75240876101847
335,64.5362739273365
336,25.6037217671649
337,17.5016108031171
338,17.7508054015586
346,0.0
240,18.
399,512.354866142301
400,0.0
349,1844477.51811228
380,0.0
2,2, 1, 2, 0, 2, 0.00,60.00,Monday         
163,0.0
164,453034.957017399
334,-1.75263778419415
335,64.5483447221596
336,25.5992939826446
337,17.480032380059
338,17.7400161900295
346,0.0
240,18.
399,534.864076613299
400,0.0
349,1925510.67580788
380,0.0
2,2, 1, 2, 0, 3, 0.00,60.00,Monday         
163,0.0
164,474277.972949657
334,-1.7541188347212
335,64.6263417337402
336,25.5958726259425
337,17.4633558327585
338,17.7316779163792
346,0.0
240,18.
399,547.880098734545
400,0.0
349,1972368.35544436
380,0.0
2,2, 1, 2, 0, 4, 0.00,60.00,Monday         
163,0.0
164,494443.463587299
334,-1.75422322352957
335,64.6318370731326
336,25.5952313699525
337,17.4602298682304
338,17.7301149341152
346,0.0
240,18.
399,531.940305909783
400,0.0
349,1914985.10127522
380,0.0
2,2, 1, 2, 0, 5, 0.00,60.00,Monday         
163,0.0
164,553703.393412031
334,-1.74937847898489
335,64.3765258098853
336,25.6016559736851
337,17.4915433922572
338,17.7457716961286
346,1.
240,18.
399,491.562158482989
400,0.0
349,1769623.77053876
380,0.0
2,2, 1, 2, 0, 6, 0.00,60.00,Monday         
163,0.0
164,638187.291387976
334,-1.74106981198359
335,63.9376907267321
336,25.6130325026659
337,17.5469695026138
338,17.7734847513069
346,1.
240,18.
399,433.674777105784
400,0.0
349,1561229.19758082
380,0.0
2,2, 1, 2, 0, 7, 0.00,60.00,Monday         
163,0.0
164,931245.029780578
334,-1.71086345185244
335,62.3321882621911
336,25.6093838110639
337,17.6588792141843
338,17.8294396070922
346,1.
240,18.
399,185.783272934426
400,0.0
349,668819.782563934
380,0.0
2,2, 1, 2, 0, 8, 0.00,60.00,Monday         
163,0.0
164,4797520.02098177
334,-1.08473089811028
335,30.0849749055535
336,26.787565986847
337,19.3907032693299
338,20.2122643370472
346,0.75
240,21.0338254047644
399,829.356378262321
400,0.0
349,2985682.96174435
380,0.0
2,2, 1, 2, 0, 9, 0.00,60.00,Monday         
163,0.0
164,2437323.47043806
334,-0.914339466356688
335,22.6950227351235
336,27.1059537072395
337,20.5724421951065
338,20.8570003775285
346,0.0
240,21.1415585599504
399,7.04274227556653
400,0.0
349,25353.8721920395
380,0.0
2,2, 1, 2, 0,10, 0.00,60.00,Monday         
163,0.0
164,1340538.16057416
334,-0.851535166024857
335,20.3098120389451
336,27.2265341959701
337,21.0939657193843
338,21.1302051766502
346,0.0
240,21.1664446339162
399,0.0
400,0.0
349,0.0
380,0.0
2,2, 1, 2, 0,11, 0.00,60.00,Monday         
163,0.0
164,1063289.62391027
334,-0.826822922640247
335,19.4279376465056
336,27.2688515752627
337,21.2734157194559
338,21.2337906301765
346,0.0
240,21.194165540897
399,0.0
400,0.0
349,0.0
380,0.0
2,2, 1, 2, 0,12, 0.00,60.00,Monday         
163,49284.6045579506
164,784350.245378293
334,-0.78938236697814
335,18.1407740984119
336,27.3278305796958
337,21.466317132394
338,21.3487821327835
346,0.0
240,21.2312471331729
399,0.0
400,0.0
349,0.0
380,0.0
2,2, 1, 2, 0,13, 0.00,60.00,Monday         
163,30090.6623690672
164,775878.10850491
334,-0.774398711868964
335,17.6469887241287
336,27.3494999791649
337,21.625062080703
338,21.4130515467414
346,0.0
240,21.2010410127798
399,0.0
400,0.0
349,0.0
380,0.0
2,2, 1, 2, 0,14, 0.00,60.00,Monday         
163,18868.0255029156
164,201952.622359836
334,-0.785977761333015
335,18.0211479754258
336,27.3134359536619
337,21.6659508262778
338,21.3561640853404
346,0.0
240,21.0463773444031
399,0.0
400,0.0
349,0.0
380,0.0
2,2, 1, 2, 0,15, 0.00,60.00,Monday         
163,0.0
164,473103.454111058
334,-0.758382561462097
335,17.121273883589
336,27.3540770380146
337,21.7077835191645
338,21.4382353901981
346,0.0
240,21.1686872612317
399,0.0
400,0.0
349,0.0
380,0.0
2,2, 1, 2, 0,16, 0.00,60.00,Monday         
163,2753.27357254732
164,233739.128474839
334,-0.710468945979726
335,15.6192485141359
336,27.4271660535859
337,21.8251969870701
338,21.5758177712737
346,0.0
240,21.3264385554774
399,0.0
400,0.0
349,0.0
380,0.0
2,2, 1, 2, 0,17, 0.00,60.00,Monday         
163,352893.76562271
164,147669.974090093
334,-0.743098675694234
335,16.6336250916397
336,27.3696284276586
337,21.7183853860035
338,21.4591579758902
346,0.0
240,21.199930565777
399,0.0
400,0.0
349,0.0
380,0.0
2,2, 1, 2, 0,18, 0.00,60.00,Monday         
163,445559.522158158
164,182003.923303301
334,-0.78816381773597
335,18.1045516581781
336,27.3251868889769
337,21.5715944564241
338,21.3664768310591
346,0.0
240,21.161359205694
399,2.83832474379078
400,0.0
349,10217.9690776468
380,0.0
2,2, 1, 2, 0,19, 0.00,60.00,Monday         
163,3815587.97485423
164,0.0
334,-1.23882956900733
335,37.806715276308
336,26.4909198413641
337,20.4614453668382
338,19.6809394604829
346,0.8
240,18.9004335541275
399,0.0
400,0.0
349,0.0
380,0.0
2,2, 1, 2, 0,20, 0.00,60.00,Monday         
163,1923148.58420139
164,0.0
334,-1.56802380753923
335,54.6014767870314
336,25.8978908039349
337,18.8593335745259
338,18.4964421191913
346,1.
240,18.1335506638566
399,48.0149890755369
400,0.0
349,172853.960671933
380,0.0
2,2, 1, 2, 0,21, 0.00,60.00,Monday         
163,407410.398274833
164,0.0
334,-1.70702402156785
335,62.1248043186223
336,25.6520771270009
337,17.8704185827147
338,17.9352092913574
346,1.
240,18.
399,375.985321787343
400,0.0
349,1353547.15843443
380,0.0
2,2, 1, 2, 0,22, 0.00,60.00,Monday         
163,14173.4834664312
164,151058.536267598
334,-1.75251999160056
335,64.5413480626596
336,25.5863480352823
337,17.5471172048155
338,17.7735586024077
346,1.
240,18.
399,559.139156726106
400,0.0
349,2012900.96421398
380,0.0
2,2, 1, 2, 0,23, 0.00,60.00,Monday         
163,0.0
164,430077.056757669
334,-1.77385946540723
335,65.6617183622161
336,25.5577050540303
337,17.4080047559629
338,17.7040023779814
346,1.
240,18.
399,661.224940165614
400,0.0
349,2380409.78459621
380,0.0
2,2, 1, 2, 0,24, 0.00,60.00,Monday         
163,0.0
164,513304.966102324
334,-1.77905038632253
335,65.9326579489608
336,25.546542936426
337,17.3537385828437
338,17.6768692914218
346,0.0
240,18.
399,724.605320237985
400,0.0
349,2608579.15285674
380,0.0
2,3, 1, 3, 0, 1, 0.00,60.00,Tuesday        
163,0.0
164,517131.093240388
334,-1.79224168547418
335,66.6183617655157
336,25.5364145556578
337,17.3044694741597
338,17.6522347370798
346,0.0
240,18.
399,801.337114111771
400,0.0
349,2884813.61080237
380,0.0
2,3, 1, 3, 0, 2, 0.00,60.00,Tuesday        
163,0.0
164,616211.894905168
334,-1.80681096004043
335,67.371404318927
336,25.5232011643365
337,17.2401591258443
338,17.6200795629222
346,0.0
240,18.
399,846.546183857445
400,0.0
349,3047566.2618868
380,0.0
2,3, 1, 3, 0, 3, 0.00,60.00,Tuesday        
163,0.0
164,669587.611716638
334,-1.81522731782943
335,67.8040319172991
336,25.5143771505037
337,17.1971901703844
338,17.5985950851922
346,0.0
240,18.
399,878.503407254566
400,0.0
349,3162612.26611644
380,0.0
2,3, 1, 3, 0, 4, 0.00,60.00,Tuesday        
163,0.0
164,616631.621775729
334,-1.82217983758871
335,68.1601515823935
336,25.5089588334744
337,17.1707961806355
338,17.5853980903178
346,0.0
240,18.
399,927.184183304649
400,0.0
349,3337863.05989674
380,0.0
2,3, 1, 3, 0, 5, 0.00,60.00,Tuesday        
163,0.0
164,805516.594154812
334,-1.81939192049723
335,68.0175105282483
336,25.5117749895731
337,17.1845154071989
338,17.5922577035994
346,1.
240,18.
399,891.134442992514
400,0.0
349,3208083.99477305
380,0.0
2,3, 1, 3, 0, 6, 0.00,60.00,Tuesday        
163,0.0
164,929238.08797292
334,-1.8187551096439
335,67.9847664956442
336,25.5213432234278
337,17.2311130642873
338,17.6155565321437
346,1.
240,18.
399,752.900782484537
400,0.0
349,2710442.81694433
380,0.0
2,3, 1, 3, 0, 7, 0.00,60.00,Tuesday        
163,0.0
164,1201125.30406031
334,-1.3516888699922
335,42.9561823011273
336,24.6094691354643
337,17.3627537055666
338,17.6813768527833
346,1.
240,18.
399,420.12958747707
400,0.0
349,1512466.51491745
380,0.0
2,3, 1, 3, 0, 8, 0.00,60.00,Tuesday        
163,0.0
164,5071394.50026828
334,-0.781777486319793
335,18.2365005323535
336,25.9454601131788
337,19.1615381834405
338,20.0959470271546
346,1.
240,21.0303558708688
399,1016.62124279517
400,0.0
349,3659836.47406262
380,0.0
2,3, 1, 3, 0, 9, 0.00,60.00,Tuesday        
163,0.0
164,2368941.0485232
334,-0.644356322534515
335,13.7261177694662
336,26.2522296360955
337,20.3083802056206
338,20.6541901028103
346,0.2
240,21.
399,148.307740470954
400,0.0
349,533907.865695433
380,0.0
2,3, 1, 3, 0,10, 0.00,60.00,Tuesday        
163,0.0
164,1768992.66621346
334,-0.575161733828263
335,11.9530414785144
336,26.4024599755669
337,20.7842513142424
338,20.9615546033439
346,0.0
240,21.1388578924453
399,8.37344263055149
400,0.0
349,30144.3934699854
380,0.0
2,3, 1, 3, 0,11, 0.00,60.00,Tuesday        
163,0.0
164,1296120.34512201
334,-0.51749529380325
335,10.6099383566787
336,26.5142373919279
337,21.1516570636817
338,21.1694053452239
346,0.0
240,21.187153626766
399,0.0
400,0.0
349,0.0
380,0.0
2,3, 1, 3, 0,12, 0.00,60.00,Tuesday        
163,6413.51484235129
164,956770.36418294
334,-0.467712277203463
335,9.5725585173976
336,26.5921493187001
337,21.4629885063555
338,21.3350621497528
346,0.0
240,21.2071357931501
399,0.0
400,0.0
349,0.0
380,0.0
2,3, 1, 3, 0,13, 0.00,60.00,Tuesday        
163,48882.6625977786
164,642743.749524868
334,-0.434381975763939
335,8.94150683998108
336,26.6452541329479
337,21.6847001500666
338,21.441081726462
346,0.0
240,21.1974633028574
399,0.0
400,0.0
349,0.0
380,0.0
2,3, 1, 3, 0,14, 0.00,60.00,Tuesday        
163,73580.4771704914
164,166782.823351052
334,-0.451920165795981
335,9.26473641763483
336,26.596270781192
337,21.6742162344454
338,21.3652872280644
346,0.0
240,21.0563582216834
399,0.0
400,0.0
349,0.0
380,0.0
2,3, 1, 3, 0,15, 0.00,60.00,Tuesday        
163,0.0
164,256125.511663532
334,-0.461757383196016
335,9.4510779839184
336,26.5712196070038
337,21.6277477192781
338,21.3243802532377
346,0.0
240,21.0210127871972
399,0.0
400,0.0
349,0.0
380,0.0
2,3, 1, 3, 0,16, 0.00,60.00,Tuesday        
163,91546.6188884067
164,268930.584952932
334,-0.439936059357137
335,9.04624899938598
336,26.6153058418591
337,21.6404231596658
338,21.3915022918646
346,0.0
240,21.1425814240633
399,0.0
400,0.0
349,0.0
380,0.0
2,3, 1, 3, 0,17, 0.00,60.00,Tuesday        
163,230718.002371113
164,245141.148815309
334,-0.432601797230516
335,8.90801011246863
336,26.6180074404764
337,21.5993313081316
338,21.3981754264821
346,0.0
240,21.1970195448325
399,0.0
400,0.0
349,0.0
380,0.0
2,3, 1, 3, 0,18, 0.00,60.00,Tuesday        
163,300886.094414223
164,270684.562444456
334,-0.458137265908883
335,9.38769597832519
336,26.5836964859386
337,21.4724036208483
338,21.3167823091877
346,0.0
240,21.1611609975271
399,0.0
400,0.0
349,0.0
380,0.0
2,3, 1, 3, 0,19, 0.00,60.00,Tuesday        
163,3678457.08676622
164,0.0
334,-0.860373977824309
335,21.2092959812364
336,25.6372537811442
337,20.3509774603734
338,19.6242491693116
346,0.85
240,18.8975208782498
399,0.0
400,0.0
349,0.0
380,0.0
2,3, 1, 3, 0,20, 0.00,60.00,Tuesday        
163,1850916.63813643
164,0.0
334,-1.14971521398809
335,32.8682921689067
336,24.9584830078592
337,18.7270457213737
338,18.409943884651
346,1.
240,18.0928420479284
399,33.4919395507008
400,0.0
349,120570.982382523
380,0.0
2,3, 1, 3, 0,21, 0.00,60.00,Tuesday        
163,364485.48783382
164,0.0
334,-1.25643325561745
335,38.0526733623467
336,24.7347375103903
337,17.9064872883091
338,17.9532436441547
346,1.
240,18.0000000000003
399,291.01532506126
400,0.0
349,1047655.17022054
380,0.0
2,3, 1, 3, 0,22, 0.00,60.00,Tuesday        
163,18620.4879564383
164,94342.7540196861
334,-1.29862277469132
335,40.1988466321389
336,24.6691560981238
337,17.6222108468273
338,17.8111054234137
346,1.
240,18.
399,499.575433997309
400,0.0
349,1798471.56239031
380,0.0
2,3, 1, 3, 0,23, 0.00,60.00,Tuesday        
163,0.0
164,358617.99619419
334,-1.33034418016292
335,41.8397202572731
336,24.6303635528393
337,17.4536603290449
338,17.7268301645225
346,1.
240,18.
399,647.237043123972
400,0.0
349,2330053.3552463
380,0.0
2,3, 1, 3, 0,24, 0.00,60.00,Tuesday        
163,0.0
164,488915.29280945
334,-1.34783382244013
335,42.753485184167
336,24.6069526698673
337,17.3518076290226
338,17.6759038145113
346,0.0
240,18.
399,726.046986905727
400,0.0
349,2613769.15286062
380,0.0
2,4, 1, 4, 0, 1, 0.00,60.00,Wednesday      
163,0.0
164,553633.943271659
334,-1.36221770241477
335,43.5093324297153
336,24.5911796264184
337,17.2831250674915
338,17.6415625337457
346,0.0
240,18.
399,781.958633448415
400,0.0
349,2815051.08041429
380,0.0
2,4, 1, 4, 0, 2, 0.00,60.00,Wednesday      
163,0.0
164,636521.058851064
334,-1.36787420606275
335,43.8075736216809
336,24.5825315590289
337,17.2454487305621
338,17.622724365281
346,0.0
240,18.
399,798.41034268157
400,0.0
349,2874277.23365365
380,0.0
2,4, 1, 4, 0, 3, 0.00,60.00,Wednesday      
163,0.0
164,664411.942517137
334,-1.36955494367576
335,43.8963131020888
336,24.5791626833533
337,17.2307678139714
338,17.6153839069857
346,0.0
240,18.
399,806.310790604977
400,0.0
349,2902718.84617792
380,0.0
2,4, 1, 4, 0, 4, 0.00,60.00,Wednesday      
163,0.0
164,577622.315960943
334,-1.36830987935794
335,43.8305863311369
336,24.5775829391589
337,17.2238827907825
338,17.6119413953912
346,0.0
240,18.
399,834.786213212589
400,0.0
349,3005230.36756532
380,0.0
2,4, 1, 4, 0, 5, 0.00,60.00,Wednesday      
163,0.0
164,786147.386143935
334,-1.35612515831558
335,43.1888246023137
336,24.5842884820516
337,17.2531030728399
338,17.6265515364199
346,1.
240,18.
399,747.952550257065
400,0.0
349,2692629.18092543
380,0.0
2,4, 1, 4, 0, 6, 0.00,60.00,Wednesday      
163,0.0
164,855567.374905861
334,-1.33756882545316
335,42.21630293496
336,24.6036341302318
337,17.3373606390242
338,17.6686803195121
346,1.
240,18.
399,585.138373943015
400,0.0
349,2106498.14619486
380,0.0
2,4, 1, 4, 0, 7, 0.00,60.00,Wednesday      
163,0.0
164,1127257.41320531
334,-1.49757168554452
335,50.768313820688
336,25.0146492805741
337,17.4680893844565
338,17.7340446922282
346,1.
240,18.
399,340.92801472201
400,0.0
349,1227340.85299924
380,0.0
2,4, 1, 4, 0, 8, 0.00,60.00,Wednesday      
163,0.0
164,4965321.73205017
334,-0.913931870677308
335,22.9688028247822
336,26.2845134473692
337,19.2303225947585
338,20.1308729232268
346,1.
240,21.0314232516951
399,973.978457572351
400,0.0
349,3506322.44726046
380,0.0
2,4, 1, 4, 0, 9, 0.00,60.00,Wednesday      
163,0.0
164,2432464.59617902
334,-0.775922187298159
335,17.6971297863495
336,26.5744097071572
337,20.3548827589453
338,20.6828996841641
346,0.1
240,21.010916609383
399,87.4221498868646
400,0.0
349,314719.739592713
380,0.0
2,4, 1, 4, 0,10, 0.00,60.00,Wednesday      
163,0.0
164,1785213.80560816
334,-0.673647293401641
335,14.5511847544651
336,26.7826369776169
337,20.9798870346899
338,21.1064539239783
346,0.0
240,21.2330208132667
399,0.0
400,0.0
349,0.0
380,0.0
2,4, 1, 4, 0,11, 0.00,60.00,Wednesday      
163,0.0
164,1110106.55936835
334,-0.631154594868542
335,13.3665698576569
336,26.8539402024169
337,21.3420819463965
338,21.2639067568482
346,0.0
240,21.1857315672998
399,0.0
400,0.0
349,0.0
380,0.0
2,4, 1, 4, 0,12, 0.00,60.00,Wednesday      
163,62454.3991267856
164,796781.104118066
334,-0.598227992443567
335,12.5094001799763
336,26.9054826856725
337,21.5593506122491
338,21.3777784178957
346,0.0
240,21.1962062235423
399,0.0
400,0.0
349,0.0
380,0.0
2,4, 1, 4, 0,13, 0.00,60.00,Wednesday      
163,162244.59328205
164,423325.997869923
334,-0.588683214049148
335,12.2675906813764
336,26.9228712080093
337,21.6359199079007
338,21.4149618028189
346,0.0
240,21.1940036977371
399,0.0
400,0.0
349,0.0
380,0.0
2,4, 1, 4, 0,14, 0.00,60.00,Wednesday      
163,132599.954463093
164,485234.448912695
334,-0.59227168330385
335,12.358595020695
336,26.9135906468902
337,21.6000087029
338,21.3938446956413
346,0.0
240,21.1876806883826
399,0.0
400,0.0
349,0.0
380,0.0
2,4, 1, 4, 0,15, 0.00,60.00,Wednesday      
163,59753.3035948936
164,588571.261776391
334,-0.598423823108048
335,12.512223277012
336,26.9048487275247
337,21.595973490003
338,21.3828470543796
346,0.0
240,21.1697206187562
399,0.0
400,0.0
349,0.0
380,0.0
2,4, 1, 4, 0,16, 0.00,60.00,Wednesday      
163,134902.464163122
164,466185.107973705
334,-0.590014042440653
335,12.3003679908237
336,26.938327966982
337,21.6521835780766
338,21.4365587561155
346,0.0
240,21.2209339341544
399,0.0
400,0.0
349,0.0
380,0.0
2,4, 1, 4, 0,17, 0.00,60.00,Wednesday      
163,254037.859755582
164,227179.643465853
334,-0.599721067811552
335,12.5466347376789
336,26.9214484108329
337,21.5917744047574
338,21.406206653167
346,0.0
240,21.2206389015766
399,0.0
400,0.0
349,0.0
380,0.0
2,4, 1, 4, 0,18, 0.00,60.00,Wednesday      
163,262008.967040571
164,370576.904363523
334,-0.615345796376744
335,12.9530261335237
336,26.8982899017383
337,21.4469474005159
338,21.3546698182416
346,0.0
240,21.2623922359672
399,0.0
400,0.0
349,0.0
380,0.0
2,4, 1, 4, 0,19, 0.00,60.00,Wednesday      
163,3899468.62578184
164,0.0
334,-1.08343333770079
335,30.4604766011105
336,25.8869322121187
337,20.1605198464421
338,19.4496820994963
346,0.9
240,18.7388443525505
399,0.0
400,0.0
349,0.0
380,0.0
2,4, 1, 4, 0,20, 0.00,60.00,Wednesday      
163,1616764.60479189
164,0.0
334,-1.37701196300883
335,44.3078918567879
336,25.252670369907
337,18.4518042227357
338,18.257731417664
346,1.
240,18.0636586125923
399,113.29074158513
400,0.0
349,407846.669706468
380,0.0
2,4, 1, 4, 0,21, 0.00,60.00,Wednesday      
163,212389.494080594
164,14509.3823077659
334,-1.46406757048521
335,48.9534419029587
336,25.0740250555676
337,17.7377165365627
338,17.8688582682814
346,1.
240,18.
399,413.226394242738
400,0.0
349,1487615.01927386
380,0.0
2,4, 1, 4, 0,22, 0.00,60.00,Wednesday      
163,3812.19408665279
164,231992.472607439
334,-1.49622308935484
335,50.6951098742748
336,25.020881371997
337,17.4964262465099
338,17.7482131232549
346,1.
240,18.
399,546.308097350527
400,0.0
349,1966709.1504619
380,0.0
2,4, 1, 4, 0,23, 0.00,60.00,Wednesday      
163,0.0
164,476560.345764235
334,-1.50868350053155
335,51.3720549314381
336,24.9971587520493
337,17.3885200283212
338,17.6942600141606
346,1.
240,18.
399,628.307991108647
400,0.0
349,2261908.76799113
380,0.0
2,4, 1, 4, 0,24, 0.00,60.00,Wednesday      
163,0.0
164,556928.369260847
334,-1.5134147198592
335,51.6293315369341
336,24.9888832065723
337,17.3508496773286
338,17.6754248386643
346,0.0
240,18.
399,648.490201090826
400,0.0
349,2334564.72392697
380,0.0
2,5, 1, 5, 0, 1, 0.00,60.00,Thursday       
163,0.0
164,540773.34012657
334,-1.51561571441865
335,51.7490528503419
336,24.9889157945639
337,17.3509980925273
338,17.6754990462637
346,0.0
240,18.
399,661.137495001602
400,0.0
349,2380094.98200577
380,0.0
2,5, 1, 5, 0, 2, 0.00,60.00,Thursday       
163,0.0
164,564600.119015049
334,-1.51323400943415
335,51.6195089505082
336,24.9901888421674
337,17.3567941986346
338,17.6783970993173
346,0.0
240,18.
399,666.728492376557
400,0.0
349,2400222.57255561
380,0.0
2,5, 1, 5, 0, 3, 0.00,60.00,Thursday       
163,0.0
164,577242.168177352
334,-1.50780026922845
335,51.3240296827907
336,24.9914063092818
337,17.3623368849259
338,17.681168442463
346,0.0
240,18.
399,645.400290659737
400,0.0
349,2323441.04637505
380,0.0
2,5, 1, 5, 0, 4, 0.00,60.00,Thursday       
163,0.0
164,557492.721160875
334,-1.51105173227068
335,51.5008187220489
336,24.9948165530297
337,17.3778610254195
338,17.6889305127097
346,0.0
240,18.
399,637.275190389779
400,0.0
349,2294190.6854032
380,0.0
2,5, 1, 5, 0, 5, 0.00,60.00,Thursday       
163,0.0
164,565672.559872398
334,-1.50849765206198
335,51.3619568707085
336,24.9970275175146
337,17.3879245628329
338,17.6939622814165
346,1.
240,18.
399,628.069407356991
400,0.0
349,2261049.86648517
380,0.0
2,5, 1, 5, 0, 6, 0.00,60.00,Thursday       
163,0.0
164,766817.61800334
334,-1.4964966542788
335,50.7099039357556
336,25.0032368291714
337,17.4161807075613
338,17.7080903537806
346,1.
240,18.
399,541.426563197699
400,0.0
349,1949135.62751172
380,0.0
2,5, 1, 5, 0, 7, 0.00,60.00,Thursday       
163,0.0
164,1096687.47172081
334,-1.59295709082701
335,55.9618555941686
336,25.2776639870397
337,17.534179963153
338,17.7670899815765
346,1.
240,18.
399,268.997435815014
400,0.0
349,968390.768934049
380,0.0
2,5, 1, 5, 0, 8, 0.00,60.00,Thursday       
163,0.0
164,4806220.06382901
334,-0.985110288946656
335,25.8114256239528
336,26.5103386779584
337,19.2994933661793
338,20.1658308281932
346,0.95
240,21.0321682902071
399,929.143285720686
400,0.0
349,3344915.82859447
380,0.0
2,5, 1, 5, 0, 9, 0.00,60.00,Thursday       
163,0.0
164,2387228.06216864
334,-0.841441039558567
335,19.9527976333889
336,26.7960138342041
337,20.4181247890499
338,20.7272283591135
346,0.0
240,21.0363319291772
399,59.6800868414955
400,0.0
349,214848.312629384
380,0.0
2,5, 1, 5, 0,10, 0.00,60.00,Thursday       
163,0.0
164,1678991.27560824
334,-0.749153578453263
335,16.8287261800581
336,26.987713703355
337,21.0069509878795
338,21.1208255137172
346,0.0
240,21.234700039555
399,0.0
400,0.0
349,0.0
380,0.0
2,5, 1, 5, 0,11, 0.00,60.00,Thursday       
163,0.0
164,970521.06642783
334,-0.723638386547288
335,16.0251846319937
336,27.0376125323007
337,21.3138140167985
338,21.2438887746835
346,0.0
240,21.1739635325685
399,0.0
400,0.0
349,0.0
380,0.0
2,5, 1, 5, 0,12, 0.00,60.00,Thursday       
163,1636.39294820551
164,478771.125239513
334,-0.706039509594902
335,15.4881107422109
336,27.055444516186
337,21.4193344834428
338,21.2881462262834
346,0.0
240,21.156957969124
399,0.0
400,0.0
349,0.0
380,0.0
2,5, 1, 5, 0,13, 0.00,60.00,Thursday       
163,0.0
164,687355.478444485
334,-0.687441423883083
335,14.9404561929542
336,27.0737570091496
337,21.4399572012104
338,21.3267913674272
346,0.0
240,21.213625533644
399,0.0
400,0.0
349,0.0
380,0.0
2,5, 1, 5, 0,14, 0.00,60.00,Thursday       
163,67697.206315206
164,684070.714836852
334,-0.677382660188931
335,14.6490876454649
336,27.0899477343525
337,21.530105341822
338,21.3547404352118
346,0.0
240,21.1793755286016
399,0.0
400,0.0
349,0.0
380,0.0
2,5, 1, 5, 0,15, 0.00,60.00,Thursday       
163,126381.206327735
164,490317.354790499
334,-0.6778760103834
335,14.6620038526905
336,27.0888096709507
337,21.5778732072481
338,21.368185027815
346,0.0
240,21.1584968483818
399,0.0
400,0.0
349,0.0
380,0.0
2,5, 1, 5, 0,16, 0.00,60.00,Thursday       
163,149804.067790186
164,411359.877594581
334,-0.670137703855405
335,14.4426900578358
336,27.103698392143
337,21.577107034365
338,21.3910063629373
346,0.0
240,21.2049056915097
399,0.0
400,0.0
349,0.0
380,0.0