Program Version,EnergyPlus, Version 8.8, YMD=2015.03.19 00:35
1,5,Environment Title[],Latitude[deg],Longitude[deg],Time Zone[],Elevation[m]
2,6,Day of Simulation[],Month[],Day of Month[],DST Indicator[1=yes 0=no],Hour[],StartMinute[],EndMinute[],DayType
3,3,Cumulative Day of Simulation[],Month[],Day of Month[],DST Indicator[1=yes 0=no],DayType  ! When Daily Report Variables Requested
4,2,Cumulative Days of Simulation[],Month[]  ! When Monthly Report Variables Requested
5,1,Cumulative Days of Simulation[] ! When Run Period Report Variables Requested
10,1,ZONE1,Zone Opaque Surface Inside Faces Total Conduction Heat Gain Energy [J] !Hourly
11,1,ZONE1,Zone Opaque Surface Inside Faces Total Conduction Heat Loss Energy [J] !Hourly
87,1,ZONE1,Zone Thermostat Air Temperature [C] !Hourly
90,1,ZONE1,Zone Thermal Comfort ASHRAE 55 Simple Model Summer or Winter Clothes Not Comfortable Time [hr] !Hourly
153,1,BLOCK1:ZONE1 IDEAL LOADS AIR SYSTEM,Zone Ideal Loads Supply Air Total Heating Rate [W] !Hourly
154,1,BLOCK1:ZONE1 IDEAL LOADS AIR SYSTEM,Zone Ideal Loads Supply Air Total Cooling Rate [W] !Hourly
103,1,DistrictHeating:HVAC [J] !Hourly
134,1,DistrictCooling:HVAC [J] !Hourly
End of Data Dictionary
1,ANNUAL,  51.15,  -0.18,   0.00,  62.00
2,1, 1, 1, 0, 1, 0.00,60.00,Sunday         
10,0.0
11,317004.393345836
90,0.0
87,18.
153,748.234319570128
154,0.0
103,2693643.55045246
134,0.0
2,1, 1, 1, 0, 2, 0.00,60.00,Sunday         
10,0.0
11,426392.185035852
90,0.0
87,18.
153,871.766817499484
154,0.0
103,3138360.54299814
134,0.0
2,1, 1, 1, 0, 3, 0.00,60.00,Sunday         
10,0.0
11,556366.871117491
90,0.0
87,18.
153,966.400756832812
154,0.0
103,3479042.72459812
134,0.0
2,1, 1, 1, 0, 4, 0.00,60.00,Sunday         
10,0.0
11,644325.326064953
90,0.0
87,18.
153,1018.39846097886
154,0.0
103,3666234.45952389
134,0.0
2,1, 1, 1, 0, 5, 0.00,60.00,Sunday         
10,0.0
11,700124.566104792
90,0.0
87,18.
153,1088.83649278152
154,0.0
103,3919811.37401346
134,0.0
2,1, 1, 1, 0, 6, 0.00,60.00,Sunday         
10,0.0
11,740191.791055856
90,0.0
87,18.
153,1121.01305581451
154,0.0
103,4035647.00093225
134,0.0
2,1, 1, 1, 0, 7, 0.00,60.00,Sunday         
10,0.0
11,795361.404257217
90,0.0
87,18.
153,1041.09284785156
154,0.0
103,3747934.25226561
134,0.0
2,1, 1, 1, 0, 8, 0.00,60.00,Sunday         
10,0.0
11,4642159.7372607
90,0.0
87,21.026170665261
153,1905.73779733402
154,0.0
103,6860656.07040249
134,0.0
2,1, 1, 1, 0, 9, 0.00,60.00,Sunday         
10,0.0
11,1809966.48570856
90,0.0
87,21.
153,1251.90168549438
154,0.0
103,4506846.06777977
134,0.0
2,1, 1, 1, 0,10, 0.00,60.00,Sunday         
10,0.0
11,1246728.99237064
90,0.0
87,21.
153,1090.05907814153
154,0.0
103,3924212.6813095
134,0.0
2,1, 1, 1, 0,11, 0.00,60.00,Sunday         
10,0.0
11,1079952.92426453
90,0.0
87,21.
153,938.513580972327
154,0.0
103,3378648.89150038
134,0.0
2,1, 1, 1, 0,12, 0.00,60.00,Sunday         
10,0.0
11,879286.090826245
90,0.0
87,21.
153,792.194227672371
154,0.0
103,2851899.21962054
134,0.0
2,1, 1, 1, 0,13, 0.00,60.00,Sunday         
10,0.0
11,654890.27735348
90,0.0
87,21.
153,731.418032353672
154,0.0
103,2633104.91647322
134,0.0
2,1, 1, 1, 0,14, 0.00,60.00,Sunday         
10,0.0
11,433977.835945862
90,0.0
87,21.
153,704.172650752382
154,0.0
103,2535021.54270857
134,0.0
2,1, 1, 1, 0,15, 0.00,60.00,Sunday         
10,0.0
11,247807.721969448
90,0.0
87,21.
153,735.183414481038
154,0.0
103,2646660.29213174
134,0.0
2,1, 1, 1, 0,16, 0.00,60.00,Sunday         
10,0.0
11,183941.662735779
90,0.0
87,21.
153,784.994511441138
154,0.0
103,2825980.2411881
134,0.0
2,1, 1, 1, 0,17, 0.00,60.00,Sunday         
10,9172.33420615543
11,272825.02648475
90,0.0
87,21.
153,876.567705343611
154,0.0
103,3155643.739237
134,0.0
2,1, 1, 1, 0,18, 0.00,60.00,Sunday         
10,0.0
11,417141.886395493
90,0.0
87,21.
153,957.197455094542
154,0.0
103,3445910.83834035
134,0.0
2,1, 1, 1, 0,19, 0.00,60.00,Sunday         
10,2807388.56008238
11,22423.865524865
90,0.0
87,18.2473434361726
153,151.336056403798
154,0.0
103,544809.803053673
134,0.0
2,1, 1, 1, 0,20, 0.00,60.00,Sunday         
10,686560.473472365
11,0.0
90,0.0
87,18.
153,550.27738636222
154,0.0
103,1980998.59090399
134,0.0
2,1, 1, 1, 0,21, 0.00,60.00,Sunday         
10,61912.7804938716
11,42996.5662701664
90,0.0
87,18.
153,696.153043434961
154,0.0
103,2506150.95636586
134,0.0
2,1, 1, 1, 0,22, 0.00,60.00,Sunday         
10,0.0
11,243659.1775217
90,0.0
87,18.
153,738.31856341445
154,0.0
103,2657946.82829202
134,0.0
2,1, 1, 1, 0,23, 0.00,60.00,Sunday         
10,0.0
11,342258.637891057
90,0.0
87,18.
153,740.122187177277
154,0.0
103,2664439.8738382
134,0.0
2,1, 1, 1, 0,24, 0.00,60.00,Sunday         
10,0.0
11,373021.279549964
90,0.0
87,18.
153,695.601704793274
154,0.0
103,2504166.13725579
134,0.0
2,2, 1, 2, 0, 1, 0.00,60.00,Monday         
10,0.0
11,370315.051968328
90,0.0
87,18.
153,616.304437108921
154,0.0
103,2218695.97359212
134,0.0
2,2, 1, 2, 0, 2, 0.00,60.00,Monday         
10,0.0
11,347144.587078311
90,0.0
87,18.
153,536.826327355746
154,0.0
103,1932574.77848068
134,0.0
2,2, 1, 2, 0, 3, 0.00,60.00,Monday         
10,0.0
11,312348.590985238
90,0.0
87,18.
153,497.29112807345
154,0.0
103,1790248.06106442
134,0.0
2,2, 1, 2, 0, 4, 0.00,60.00,Monday         
10,0.0
11,290535.11444367
90,0.0
87,18.
153,492.030965349804
154,0.0
103,1771311.4752593
134,0.0
2,2, 1, 2, 0, 5, 0.00,60.00,Monday         
10,0.0
11,311102.977503914
90,0.0
87,18.
153,461.105805025091
154,0.0
103,1659980.89809033
134,0.0
2,2, 1, 2, 0, 6, 0.00,60.00,Monday         
10,0.0
11,278110.917069227
90,0.0
87,18.
153,445.728163519592
154,0.0
103,1604621.38867053
134,0.0
2,2, 1, 2, 0, 7, 0.00,60.00,Monday         
10,0.0
11,272951.162902836
90,0.0
87,18.
153,383.461712265056
154,0.0
103,1380462.1641542
134,0.0
2,2, 1, 2, 0, 8, 0.00,60.00,Monday         
10,0.0
11,4034667.41906347
90,0.0
87,21.026920760485
153,1442.45486597273
154,0.0
103,5192837.51750183
134,0.0
2,2, 1, 2, 0, 9, 0.00,60.00,Monday         
10,0.0
11,1280531.6882889
90,0.0
87,21.
153,728.852685929393
154,0.0
103,2623869.66934582
134,0.0
2,2, 1, 2, 0,10, 0.00,60.00,Monday         
10,0.0
11,727998.023525088
90,0.0
87,21.
153,598.701663506533
154,0.0
103,2155325.98862352
134,0.0
2,2, 1, 2, 0,11, 0.00,60.00,Monday         
10,0.0
11,502450.117381085
90,0.0
87,21.
153,574.247891167706
154,0.0
103,2067292.40820374
134,0.0
2,2, 1, 2, 0,12, 0.00,60.00,Monday         
10,0.0
11,481015.992011048
90,0.0
87,21.
153,583.436849372146
154,0.0
103,2100372.65773973
134,0.0
2,2, 1, 2, 0,13, 0.00,60.00,Monday         
10,0.0
11,509750.923033731
90,0.0
87,21.
153,555.952055096854
154,0.0
103,2001427.39834867
134,0.0
2,2, 1, 2, 0,14, 0.00,60.00,Monday         
10,0.0
11,538041.910249511
90,0.0
87,21.
153,512.524709133195
154,0.0
103,1845088.9528795
134,0.0
2,2, 1, 2, 0,15, 0.00,60.00,Monday         
10,0.0
11,349061.838449932
90,0.0
87,21.
153,489.898862430351
154,0.0
103,1763635.90474926
134,0.0
2,2, 1, 2, 0,16, 0.00,60.00,Monday         
10,13073.3589508875
11,138835.215484227
90,0.0
87,21.
153,532.735747161132
154,0.0
103,1917848.68978008
134,0.0
2,2, 1, 2, 0,17, 0.00,60.00,Monday         
10,0.0
11,229910.542651967
90,0.0
87,21.
153,629.981455496666
154,0.0
103,2267933.239788
134,0.0
2,2, 1, 2, 0,18, 0.00,60.00,Monday         
10,0.0
11,357277.846310887
90,0.0
87,21.
153,680.420592988798
154,0.0
103,2449514.13475967
134,0.0
2,2, 1, 2, 0,19, 0.00,60.00,Monday         
10,2813563.52757801
11,19778.4139101569
90,0.0
87,18.3460696158042
153,40.7958913883656
154,0.0
103,146865.208998116
134,0.0
2,2, 1, 2, 0,20, 0.00,60.00,Monday         
10,808804.998884748
11,0.0
90,0.0
87,18.0000000000019
153,349.969875078153
154,0.0
103,1259891.55028135
134,0.0
2,2, 1, 2, 0,21, 0.00,60.00,Monday         
10,105054.103846669
11,20312.7051540382
90,0.0
87,18.
153,514.126008741757
154,0.0
103,1850853.63147032
134,0.0
2,2, 1, 2, 0,22, 0.00,60.00,Monday         
10,0.0
11,221467.268550797
90,0.0
87,18.
153,587.689459990093
154,0.0
103,2115682.05596433
134,0.0
2,2, 1, 2, 0,23, 0.00,60.00,Monday         
10,0.0
11,414597.879755026
90,0.0
87,18.
153,659.714959214976
154,0.0
103,2374973.85317391
134,0.0
2,2, 1, 2, 0,24, 0.00,60.00,Monday         
10,0.0
11,445160.301540915
90,0.0
87,18.
153,638.305223850271
154,0.0
103,2297898.80586098
134,0.0
2,3, 1, 3, 0, 1, 0.00,60.00,Tuesday        
10,0.0
11,404502.895056008
90,0.0
87,18.
153,645.407415062156
154,0.0
103,2323466.69422376
134,0.0
2,3, 1, 3, 0, 2, 0.00,60.00,Tuesday        
10,0.0
11,398238.159446229
90,0.0
87,18.
153,680.85925127554
154,0.0
103,2451093.30459194
134,0.0
2,3, 1, 3, 0, 3, 0.00,60.00,Tuesday        
10,0.0
11,419750.511508044
90,0.0
87,18.
153,755.893777934347
154,0.0
103,2721217.60056365
134,0.0
2,3, 1, 3, 0, 4, 0.00,60.00,Tuesday        
10,0.0
11,485643.361337546
90,0.0
87,18.
153,773.314250419003
154,0.0
103,2783931.30150841
134,0.0
2,3, 1, 3, 0, 5, 0.00,60.00,Tuesday        
10,0.0
11,515235.514657113
90,0.0
87,18.
153,742.696373958558
154,0.0
103,2673706.94625081
134,0.0
2,3, 1, 3, 0, 6, 0.00,60.00,Tuesday        
10,0.0
11,513275.576297713
90,0.0
87,18.
153,742.853734258202
154,0.0
103,2674273.44332953
134,0.0
2,3, 1, 3, 0, 7, 0.00,60.00,Tuesday        
10,0.0
11,531539.944281992
90,0.0
87,18.
153,675.892476751911
154,0.0
103,2433212.91630688
134,0.0
2,3, 1, 3, 0, 8, 0.00,60.00,Tuesday        
10,0.0
11,4336460.83734406
90,0.0
87,21.0201434437644
153,1706.61251493554
154,0.0
103,6143805.05376794
134,0.0
2,3, 1, 3, 0, 9, 0.00,60.00,Tuesday        
10,0.0
11,1551087.91061243
90,0.0
87,21.
153,951.615581985818
154,0.0
103,3425816.09514894
134,0.0
2,3, 1, 3, 0,10, 0.00,60.00,Tuesday        
10,0.0
11,1024886.20421244
90,0.0
87,21.
153,783.575316430783
154,0.0
103,2820871.13915082
134,0.0
2,3, 1, 3, 0,11, 0.00,60.00,Tuesday        
10,0.0
11,855900.106063294
90,0.0
87,21.
153,677.245437706343
154,0.0
103,2438083.57574284
134,0.0
2,3, 1, 3, 0,12, 0.00,60.00,Tuesday        
10,0.0
11,706290.551925007
90,0.0
87,21.
153,596.65295466296
154,0.0
103,2147950.63678666
134,0.0
2,3, 1, 3, 0,13, 0.00,60.00,Tuesday        
10,0.0
11,543492.972975836
90,0.0
87,21.
153,558.509310386958
154,0.0
103,2010633.51739305
134,0.0
2,3, 1, 3, 0,14, 0.00,60.00,Tuesday        
10,0.0
11,371082.179479956
90,0.0
87,21.
153,551.846150537406
154,0.0
103,1986646.14193466
134,0.0
2,3, 1, 3, 0,15, 0.00,60.00,Tuesday        
10,0.0
11,216400.460113904
90,0.0
87,21.
153,574.863107360712
154,0.0
103,2069507.18649856
134,0.0
2,3, 1, 3, 0,16, 0.00,60.00,Tuesday        
10,0.0
11,182237.330273009
90,0.0
87,21.
153,621.253629335761
154,0.0
103,2236513.06560874
134,0.0
2,3, 1, 3, 0,17, 0.00,60.00,Tuesday        
10,0.0
11,322074.167231603
90,0.0
87,21.
153,665.243008225775
154,0.0
103,2394874.82961279
134,0.0
2,3, 1, 3, 0,18, 0.00,60.00,Tuesday        
10,4400.08741557629
11,353877.838634077
90,0.0
87,21.
153,728.530961265283
154,0.0
103,2622711.46055502
134,0.0
2,3, 1, 3, 0,19, 0.00,60.00,Tuesday        
10,2786407.83487212
11,17783.8250592011
90,0.0
87,18.3241969123349
153,88.0271613144325
154,0.0
103,316897.780731957
134,0.0
2,3, 1, 3, 0,20, 0.00,60.00,Tuesday        
10,704022.294115583
11,0.0
90,0.0
87,18.
153,497.420170068486
154,0.0
103,1790712.61224655
134,0.0
2,3, 1, 3, 0,21, 0.00,60.00,Tuesday        
10,43890.5559628217
11,86075.4366188876
90,0.0
87,18.
153,667.665651659933
154,0.0
103,2403596.34597576
134,0.0
2,3, 1, 3, 0,22, 0.00,60.00,Tuesday        
10,0.0
11,367235.075387296
90,0.0
87,18.
153,754.73824941019
154,0.0
103,2717057.69787668
134,0.0
2,3, 1, 3, 0,23, 0.00,60.00,Tuesday        
10,0.0
11,522428.082931358
90,0.0
87,18.
153,844.172359677234
154,0.0
103,3039020.49483804
134,0.0
2,3, 1, 3, 0,24, 0.00,60.00,Tuesday        
10,0.0
11,577943.607964656
90,0.0
87,18.
153,825.833164529232
154,0.0
103,2972999.39230524
134,0.0
2,4, 1, 4, 0, 1, 0.00,60.00,Wednesday      
10,0.0
11,561308.863936529
90,0.0
87,18.
153,840.228063730427
154,0.0
103,3024821.02942954
134,0.0
2,4, 1, 4, 0, 2, 0.00,60.00,Wednesday      
10,0.0
11,586863.946742999
90,0.0
87,18.
153,844.383872709403
154,0.0
103,3039781.94175385
134,0.0
2,4, 1, 4, 0, 3, 0.00,60.00,Wednesday      
10,0.0
11,587842.306874721
90,0.0
87,18.
153,813.160956896701
154,0.0
103,2927379.44482812
134,0.0
2,4, 1, 4, 0, 4, 0.00,60.00,Wednesday      
10,0.0
11,559624.534994437
90,0.0
87,18.
153,840.343486203297
154,0.0
103,3025236.55033187
134,0.0
2,4, 1, 4, 0, 5, 0.00,60.00,Wednesday      
10,0.0
11,552114.798810546
90,0.0
87,18.
153,901.913174843472
154,0.0
103,3246887.4294365
134,0.0
2,4, 1, 4, 0, 6, 0.00,60.00,Wednesday      
10,0.0
11,586021.787615607
90,0.0
87,18.
153,934.825172115707
154,0.0
103,3365370.61961654
134,0.0
2,4, 1, 4, 0, 7, 0.00,60.00,Wednesday      
10,0.0
11,639948.276459153
90,0.0
87,18.
153,866.140266616546
154,0.0
103,3118104.95981956
134,0.0
2,4, 1, 4, 0, 8, 0.00,60.00,Wednesday      
10,0.0
11,4500747.09642117
90,0.0
87,21.035209509775
153,1775.25132445894
154,0.0
103,6390904.76805219
134,0.0
2,4, 1, 4, 0, 9, 0.00,60.00,Wednesday      
10,0.0
11,1737010.54653354
90,0.0
87,21.
153,1150.2835537875
154,0.0
103,4141020.79363501
134,0.0
2,4, 1, 4, 0,10, 0.00,60.00,Wednesday      
10,0.0
11,1222136.59688906
90,0.0
87,21.
153,929.466710392087
154,0.0
103,3346080.15741151
134,0.0
2,4, 1, 4, 0,11, 0.00,60.00,Wednesday      
10,0.0
11,784659.119424053
90,0.0
87,21.
153,847.794383249163
154,0.0
103,3052059.77969699
134,0.0
2,4, 1, 4, 0,12, 0.00,60.00,Wednesday      
10,0.0
11,848567.555833057
90,0.0
87,21.
153,824.930947765237
154,0.0
103,2969751.41195485
134,0.0
2,4, 1, 4, 0,13, 0.00,60.00,Wednesday      
10,0.0
11,727520.756416471
90,0.0
87,21.
153,745.033596356311
154,0.0
103,2682120.94688272
134,0.0
2,4, 1, 4, 0,14, 0.00,60.00,Wednesday      
10,0.0
11,563399.720091167
90,0.0
87,21.
153,700.261792561952
154,0.0
103,2520942.45322303
134,0.0
2,4, 1, 4, 0,15, 0.00,60.00,Wednesday      
10,0.0
11,453553.93913814
90,0.0
87,21.
153,690.81019087438
154,0.0
103,2486916.68714777
134,0.0
2,4, 1, 4, 0,16, 0.00,60.00,Wednesday      
10,1308.1267865023
11,227457.74403335
90,0.0
87,21.
153,745.778668789941
154,0.0
103,2684803.20764379
134,0.0
2,4, 1, 4, 0,17, 0.00,60.00,Wednesday      
10,0.0
11,354737.995758237
90,0.0
87,21.
153,841.103813801556
154,0.0
103,3027973.7296856
134,0.0
2,4, 1, 4, 0,18, 0.00,60.00,Wednesday      
10,0.0
11,528659.623718851
90,0.0
87,21.
153,906.541954693513
154,0.0
103,3263551.03689665
134,0.0
2,4, 1, 4, 0,19, 0.00,60.00,Wednesday      
10,2775364.71936174
11,28888.0063064014
90,0.0
87,18.1887532400506
153,226.134536597843
154,0.0
103,814084.331752233
134,0.0
2,4, 1, 4, 0,20, 0.00,60.00,Wednesday      
10,508638.799489965
11,0.0
90,0.0
87,18.
153,648.587280106911
154,0.0
103,2334914.20838488
134,0.0
2,4, 1, 4, 0,21, 0.00,60.00,Wednesday      
10,2532.1573113382
11,208604.541744674
90,0.0
87,18.
153,777.672060816403
154,0.0
103,2799619.41893905
134,0.0
2,4, 1, 4, 0,22, 0.00,60.00,Wednesday      
10,0.0
11,473753.878387888
90,0.0
87,18.
153,835.860269177356
154,0.0
103,3009096.96903848
134,0.0
2,4, 1, 4, 0,23, 0.00,60.00,Wednesday      
10,0.0
11,577481.231756281
90,0.0
87,18.
153,941.131618664088
154,0.0
103,3388073.82719072
134,0.0
2,4, 1, 4, 0,24, 0.00,60.00,Wednesday      
10,0.0
11,623786.857746168
90,0.0
87,18.
153,945.228388153395
154,0.0
103,3402822.19735222
134,0.0
2,5, 1, 5, 0, 1, 0.00,60.00,Thursday       
10,0.0
11,646276.536447058
90,0.0
87,18.
153,925.094751834585
154,0.0
103,3330341.10660451
134,0.0
2,5, 1, 5, 0, 2, 0.00,60.00,Thursday       
10,0.0
11,666930.76652541
90,0.0
87,18.
153,876.683711538429
154,0.0
103,3156061.36153835
134,0.0
2,5, 1, 5, 0, 3, 0.00,60.00,Thursday       
10,0.0
11,647042.430734666
90,0.0
87,18.
153,815.480056274727
154,0.0
103,2935728.20258902
134,0.0
2,5, 1, 5, 0, 4, 0.00,60.00,Thursday       
10,0.0
11,492083.901933057
90,0.0
87,18.
153,802.063026255846
154,0.0
103,2887426.89452105
134,0.0
2,5, 1, 5, 0, 5, 0.00,60.00,Thursday       
10,0.0
11,487485.469099509
90,0.0
87,18.
153,809.797824345593
154,0.0
103,2915272.16764414
134,0.0
2,5, 1, 5, 0, 6, 0.00,60.00,Thursday       
10,0.0
11,470144.860257136
90,0.0
87,18.
153,793.888254751477
154,0.0
103,2857997.71710532
134,0.0
2,5, 1, 5, 0, 7, 0.00,60.00,Thursday       
10,0.0
11,453519.577633899
90,0.0
87,18.
153,665.962076197439
154,0.0
103,2397463.47431078
134,0.0
2,5, 1, 5, 0, 8, 0.00,60.00,Thursday       
10,0.0
11,4257253.03931396
90,0.0
87,21.0202387616044
153,1745.28280416775
154,0.0
103,6283018.09500392
134,0.0
2,5, 1, 5, 0, 9, 0.00,60.00,Thursday       
10,0.0
11,1467557.84059219
90,0.0
87,21.
153,998.031744068773
154,0.0
103,3592914.27864758
134,0.0
2,5, 1, 5, 0,10, 0.00,60.00,Thursday       
10,0.0
11,1056844.36239702
90,0.0
87,21.
153,833.873141073722
154,0.0
103,3001943.3078654
134,0.0
2,5, 1, 5, 0,11, 0.00,60.00,Thursday       
10,0.0
11,937318.301703435
90,0.0
87,21.
153,685.154359448436
154,0.0
103,2466555.69401437
134,0.0
2,5, 1, 5, 0,12, 0.00,60.00,Thursday       
10,0.0
11,741630.52451883
90,0.0
87,21.
153,587.578925302481
154,0.0
103,2115284.13108893
134,0.0
2,5, 1, 5, 0,13, 0.00,60.00,Thursday       
10,0.0
11,582297.145229498
90,0.0
87,21.
153,551.216326680929
154,0.0
103,1984378.77605134
134,0.0
2,5, 1, 5, 0,14, 0.00,60.00,Thursday       
10,0.0
11,353321.727065961
90,0.0
87,21.
153,554.924816782123
154,0.0
103,1997729.34041564
134,0.0
2,5, 1, 5, 0,15, 0.00,60.00,Thursday       
10,0.0
11,143703.495834254
90,0.0
87,21.
153,598.806243117166
154,0.0
103,2155702.4752218
134,0.0
2,5, 1, 5, 0,16, 0.00,60.00,Thursday       
10,0.0
11,142880.481612766
90,0.0
87,21.
153,677.150089334154
154,0.0
103,2437740.32160295
134,0.0
2,5, 1, 5, 0,17, 0.00,60.00,Thursday       
10,9513.00917853565
11,220085.304746468
90,0.0
87,21.
153,843.367576584266
154,0.0
103,3036123.27570336
134,0.0
2,5, 1, 5, 0,18, 0.00,60.00,Thursday       
10,0.0
11,473973.943372724
90,0.0
87,21.
153,958.153339478718
154,0.0
103,3449352.02212338
134,0.0
2,5, 1, 5, 0,19, 0.00,60.00,Thursday       
10,2761771.21417911
11,30190.0543378519
90,0.0
87,18.1620351819919
153,216.612006949053
154,0.0
103,779803.22501659
134,0.0
2,5, 1, 5, 0,20, 0.00,60.00,Thursday       
10,501501.613732438
11,0.0
90,0.0
87,18.
153,601.467851989855
154,0.0
103,2165284.26716348
134,0.0
2,5, 1, 5, 0,21, 0.00,60.00,Thursday       
10,5865.47664228756
11,162760.879452317
90,0.0
87,18.
153,710.87760252918
154,0.0
103,2559159.36910505
134,0.0
2,5, 1, 5, 0,22, 0.00,60.00,Thursday       
10,0.0
11,406927.177980845
90,0.0
87,18.
153,773.196872727887
154,0.0
103,2783508.74182039
134,0.0
2,5, 1, 5, 0,23, 0.00,60.00,Thursday       
10,0.0
11,502372.455604797
90,0.0
87,18.
153,974.17028388596
154,0.0
103,3507013.02198946
134,0.0
2,5, 1, 5, 0,24, 0.00,60.00,Thursday       
10,0.0
11,534529.132214042
90,0.0
87,18.
153,981.454369581065
154,0.0
103,3533235.73049183
134,0.0
2,6, 1, 6, 0, 1, 0.00,60.00,Friday         
10,0.0
11,541332.350464639
90,0.0
87,18.
153,991.359007148261
154,0.0
103,3568892.42573374
134,0.0
2,6, 1, 6, 0, 2, 0.00,60.00,Friday         
10,0.0
11,546651.244598158
90,0.0
87,18.
153,975.994513142855
154,0.0
103,3513580.24731428
134,0.0
2,6, 1, 6, 0, 3, 0.00,60.00,Friday         
10,0.0
11,547959.53785083
90,0.0
87,18.
153,970.15771440243
154,0.0
103,3492567.77184875
134,0.0
2,6, 1, 6, 0, 4, 0.00,60.00,Friday         
10,0.0
11,543405.039526998
90,0.0
87,18.
153,973.602986663395
154,0.0
103,3504970.75198822
134,0.0
2,6, 1, 6, 0, 5, 0.00,60.00,Friday         
10,0.0
11,537406.617072648
90,0.0
87,18.
153,966.874474888494
154,0.0
103,3480748.10959858
134,0.0
2,6, 1, 6, 0, 6, 0.00,60.00,Friday         
10,0.0
11,534244.323192085
90,0.0
87,18.
153,959.105197472676
154,0.0
103,3452778.71090163
134,0.0
2,6, 1, 6, 0, 7, 0.00,60.00,Friday         
10,0.0
11,546363.253322721
90,0.0
87,18.
153,810.450106604587
154,0.0
103,2917620.38377651
134,0.0
2,6, 1, 6, 0, 8, 0.00,60.00,Friday         
10,0.0
11,4407738.45796533
90,0.0
87,21.0385364785688
153,1760.98783250926
154,0.0
103,6339556.19703332
134,0.0
2,6, 1, 6, 0, 9, 0.00,60.00,Friday         
10,0.0
11,1685664.6886152
90,0.0
87,21.
153,1145.25694742641
154,0.0
103,4122925.01073508
134,0.0
2,6, 1, 6, 0,10, 0.00,60.00,Friday         
10,0.0
11,1197955.91112406
90,0.0
87,21.
153,936.186490605444
154,0.0
103,3370271.3661796
134,0.0
2,6, 1, 6, 0,11, 0.00,60.00,Friday         
10,0.0
11,919883.655060329
90,0.0
87,21.
153,798.515984857218
154,0.0
103,2874657.54548599
134,0.0
2,6, 1, 6, 0,12, 0.00,60.00,Friday         
10,0.0
11,736126.924979797
90,0.0
87,21.
153,697.975520404594
154,0.0
103,2512711.87345654
134,0.0
2,6, 1, 6, 0,13, 0.00,60.00,Friday         
10,0.0
11,560292.354850432
90,0.0
87,21.
153,636.745684093751
154,0.0
103,2292284.4627375
134,0.0
2,6, 1, 6, 0,14, 0.00,60.00,Friday         
10,0.0
11,432944.642132389
90,0.0
87,21.
153,614.079760419826
154,0.0
103,2210687.13751137
134,0.0
2,6, 1, 6, 0,15, 0.00,60.00,Friday         
10,54721.9345950119
11,108671.581868404
90,0.0
87,21.
153,707.462939525328
154,0.0
103,2546866.58229118
134,0.0
2,6, 1, 6, 0,16, 0.00,60.00,Friday         
10,0.0
11,420571.486182754
90,0.0
87,21.
153,786.974806364098
154,0.0
103,2833109.30291075
134,0.0
2,6, 1, 6, 0,17, 0.00,60.00,Friday         
10,0.0
11,500658.338195098
90,0.0
87,21.
153,787.474449859889
154,0.0
103,2834908.0194956
134,0.0
2,6, 1, 6, 0,18, 0.00,60.00,Friday         
10,0.0
11,472427.52412408
90,0.0
87,21.
153,830.785933058162
154,0.0
103,2990829.35900938
134,0.0
2,6, 1, 6, 0,19, 0.00,60.00,Friday         
10,2776395.65853715
11,25571.6565984487
90,0.0
87,18.2215516246582
153,115.156449373358
154,0.0
103,414563.217744089
134,0.0
2,6, 1, 6, 0,20, 0.00,60.00,Friday         
10,624067.717342027
11,0.0
90,0.0
87,18.
153,452.925042581125
154,0.0
103,1630530.15329205
134,0.0
2,6, 1, 6, 0,21, 0.00,60.00,Friday         
10,37851.9484877245
11,120802.023264248
90,0.0
87,18.
153,540.756919882239
154,0.0
103,1946724.91157606
134,0.0
2,6, 1, 6, 0,22, 0.00,60.00,Friday         
10,0.0
11,314756.331960219
90,0.0
87,18.
153,555.297678761404
154,0.0
103,1999071.64354106
134,0.0
2,6, 1, 6, 0,23, 0.00,60.00,Friday         
10,0.0
11,382183.969110059
90,0.0
87,18.
153,616.061594102472
154,0.0
103,2217821.7387689
134,0.0
2,6, 1, 6, 0,24, 0.00,60.00,Friday         
10,0.0
11,348453.239560514
90,0.0
87,18.
153,647.230611496328
154,0.0
103,2330030.20138678
134,0.0
2,7, 1, 7, 0, 1, 0.00,60.00,Saturday       
10,0.0
11,435946.32143012
90,0.0
87,18.
153,664.682519092218
154,0.0
103,2392857.06873198
134,0.0
2,7, 1, 7, 0, 2, 0.00,60.00,Saturday       
10,0.0
11,391164.500019691
90,0.0
87,18.
153,678.824948002545
154,0.0
103,2443769.81280916
134,0.0
2,7, 1, 7, 0, 3, 0.00,60.00,Saturday       
10,0.0
11,467646.497734414
90,0.0
87,18.
153,678.725244011465
154,0.0
103,2443410.87844127
134,0.0
2,7, 1, 7, 0, 4, 0.00,60.00,Saturday       
10,0.0
11,394231.696941194
90,0.0
87,18.
153,678.418212859315
154,0.0
103,2442305.56629353
134,0.0
2,7, 1, 7, 0, 5, 0.00,60.00,Saturday       
10,0.0
11,417910.022283039
90,0.0
87,18.
153,718.185234752344
154,0.0
103,2585466.84510844
134,0.0
2,7, 1, 7, 0, 6, 0.00,60.00,Saturday       
10,0.0
11,441756.245226569
90,0.0
87,18.
153,749.938648328824
154,0.0
103,2699779.13398377
134,0.0
2,7, 1, 7, 0, 7, 0.00,60.00,Saturday       
10,0.0
11,461887.317841503
90,0.0
87,18.
153,684.874542879686
154,0.0
103,2465548.35436687
134,0.0
2,7, 1, 7, 0, 8, 0.00,60.00,Saturday       
10,0.0
11,4320158.2039696
90,0.0
87,21.0497152910741
153,1638.87250933088
154,0.0
103,5899941.03359117
134,0.0
2,7, 1, 7, 0, 9, 0.00,60.00,Saturday       
10,0.0
11,1603497.34170085
90,0.0
87,21.
153,1038.32869452356
154,0.0
103,3737983.30028483
134,0.0
2,7, 1, 7, 0,10, 0.00,60.00,Saturday       
10,0.0
11,1108489.08750658
90,0.0
87,21.
153,858.657029674357
154,0.0
103,3091165.30682769
134,0.0
2,7, 1, 7, 0,11, 0.00,60.00,Saturday       
10,0.0
11,759105.346479556
90,0.0
87,21.
153,754.845621159387
154,0.0
103,2717444.23617379
134,0.0
2,7, 1, 7, 0,12, 0.00,60.00,Saturday       
10,0.0
11,656878.161982967
90,0.0
87,21.
153,694.470787322788
154,0.0
103,2500094.83436204
134,0.0
2,7, 1, 7, 0,13, 0.00,60.00,Saturday       
10,0.0
11,559525.949172479
90,0.0
87,21.
153,657.040583237899
154,0.0
103,2365346.09965644
134,0.0
2,7, 1, 7, 0,14, 0.00,60.00,Saturday       
10,0.0
11,492166.664229563
90,0.0
87,21.
153,639.166944940621
154,0.0
103,2301001.00178623
134,0.0
2,7, 1, 7, 0,15, 0.00,60.00,Saturday       
10,20049.867577779
11,259638.504281298
90,0.0
87,21.
153,716.481591981534
154,0.0
103,2579333.73113352
134,0.0
2,7, 1, 7, 0,16, 0.00,60.00,Saturday       
10,0.0
11,390775.896150124
90,0.0
87,21.
153,787.472379816361
154,0.0
103,2834900.5673389
134,0.0
2,7, 1, 7, 0,17, 0.00,60.00,Saturday       
10,5616.3070972181
11,399240.143370935
90,0.0
87,21.
153,861.527477960079
154,0.0
103,3101498.92065628
134,0.0
2,7, 1, 7, 0,18, 0.00,60.00,Saturday       
10,0.0
11,528635.67698001
90,0.0
87,21.
153,925.285905138029
154,0.0
103,3331029.25849691
134,0.0
2,7, 1, 7, 0,19, 0.00,60.00,Saturday       
10,2729005.24313724
11,28540.9584243817
90,0.0
87,18.1640189667558
153,228.910769498762
154,0.0
103,824078.770195544
134,0.0
2,7, 1, 7, 0,20, 0.00,60.00,Saturday       
10,534945.377135327
11,0.0
90,0.0
87,18.
153,603.518469122006
154,0.0
103,2172666.48883922
134,0.0
2,7, 1, 7, 0,21, 0.00,60.00,Saturday       
10,17697.3658978716
11,110634.585561389
90,0.0
87,18.
153,712.472022462757
154,0.0
103,2564899.28086593
134,0.0
2,7, 1, 7, 0,22, 0.00,60.00,Saturday       
10,0.0
11,365823.382706924
90,0.0
87,18.
153,733.058395820205
154,0.0
103,2639010.22495274
134,0.0
2,7, 1, 7, 0,23, 0.00,60.00,Saturday       
10,0.0
11,461068.237183284
90,0.0
87,18.
153,735.296042251801
154,0.0
103,2647065.75210648
134,0.0
2,7, 1, 7, 0,24, 0.00,60.00,Saturday       
10,0.0
11,483170.384213971
90,0.0
87,18.
153,739.580068187998
154,0.0
103,2662488.24547679
134,0.0
2,8, 1, 8, 0, 1, 0.00,60.00,Sunday         
10,0.0
11,504175.094863809
90,0.0
87,18.
153,740.405066205737
154,0.0
103,2665458.23834065
134,0.0
2,8, 1, 8, 0, 2, 0.00,60.00,Sunday         
10,0.0
11,487448.475925722
90,0.0
87,18.
153,773.24746265919
154,0.0
103,2783690.86557308
134,0.0
2,8, 1, 8, 0, 3, 0.00,60.00,Sunday         
10,0.0
11,502646.381108446
90,0.0
87,18.
153,829.512668332903
154,0.0
103,2986245.60599845
134,0.0
2,8, 1, 8, 0, 4, 0.00,60.00,Sunday         
10,0.0
11,546384.985006831
90,0.0
87,18.
153,837.796890145131
154,0.0
103,3016068.80452247
134,0.0
2,8, 1, 8, 0, 5, 0.00,60.00,Sunday         
10,0.0
11,572294.478703364
90,0.0
87,18.
153,816.402759483694
154,0.0
103,2939049.9341413
134,0.0
2,8, 1, 8, 0, 6, 0.00,60.00,Sunday         
10,0.0
11,556180.451390708
90,0.0
87,18.
153,817.914583833044
154,0.0
103,2944492.50179896
134,0.0
2,8, 1, 8, 0, 7, 0.00,60.00,Sunday         
10,0.0
11,557052.193209586
90,0.0
87,18.
153,816.226564254881
154,0.0
103,2938415.63131757
134,0.0
2,8, 1, 8, 0, 8, 0.00,60.00,Sunday         
10,0.0
11,4388365.15004962
90,0.0
87,21.0431993630075
153,1733.71593782253
154,0.0
103,6241377.3761611
134,0.0
2,8, 1, 8, 0, 9, 0.00,60.00,Sunday         
10,0.0
11,1560370.25385952
90,0.0
87,21.
153,1088.7958985748
154,0.0
103,3919665.23486927
134,0.0
2,8, 1, 8, 0,10, 0.00,60.00,Sunday         
10,0.0
11,969951.295989916
90,0.0
87,21.
153,908.009194260972
154,0.0
103,3268833.0993395
134,0.0
2,8, 1, 8, 0,11, 0.00,60.00,Sunday         
10,0.0
11,686156.369076228
90,0.0
87,21.
153,920.626732052933
154,0.0
103,3314256.23539056
134,0.0
2,8, 1, 8, 0,12, 0.00,60.00,Sunday         
10,0.0
11,665165.498521823
90,0.0
87,21.
153,970.51401531877
154,0.0
103,3493850.45514757
134,0.0
2,8, 1, 8, 0,13, 0.00,60.00,Sunday         
10,0.0
11,605376.193301635
90,0.0
87,21.
153,978.104986374649
154,0.0
103,3521177.95094874
134,0.0
2,8, 1, 8, 0,14, 0.00,60.00,Sunday         
10,0.0
11,549967.87507545
90,0.0
87,21.
153,996.070016684911
154,0.0
103,3585852.06006568
134,0.0
2,8, 1, 8, 0,15, 0.00,60.00,Sunday         
10,0.0
11,520651.989693351
90,0.0
87,21.
153,984.828649168356
154,0.0
103,3545383.13700608
134,0.0
2,8, 1, 8, 0,16, 0.00,60.00,Sunday         
10,0.0
11,493751.813461511
90,0.0
87,21.
153,973.495254720086
154,0.0
103,3504582.91699231
134,0.0
2,8, 1, 8, 0,17, 0.00,60.00,Sunday         
10,0.0
11,492244.722230781
90,0.0
87,21.
153,979.039048596333
154,0.0
103,3524540.5749468
134,0.0
2,8, 1, 8, 0,18, 0.00,60.00,Sunday         
10,0.0
11,503502.089810998
90,0.0
87,21.
153,962.598350569841
154,0.0
103,3465354.06205143
134,0.0
2,8, 1, 8, 0,19, 0.00,60.00,Sunday         
10,2811436.58319403
11,24548.8070757691
90,0.0
87,18.2623592726199
153,128.386557229097
154,0.0
103,462191.606024748
134,0.0
2,8, 1, 8, 0,20, 0.00,60.00,Sunday         
10,723503.472296937
11,0.0
90,0.0
87,18.
153,503.851968924322
154,0.0
103,1813867.08812756
134,0.0
2,8, 1, 8, 0,21, 0.00,60.00,Sunday         
10,111586.956075275
11,48768.177884612
90,0.0
87,18.
153,650.27135421516
154,0.0
103,2340976.87517458
134,0.0
2,8, 1, 8, 0,22, 0.00,60.00,Sunday         
10,0.0
11,206057.930075125
90,0.0
87,18.
153,745.559494313794
154,0.0
103,2684014.17952966
134,0.0
2,8, 1, 8, 0,23, 0.00,60.00,Sunday         
10,0.0
11,349483.964846523
90,0.0
87,18.
153,801.582627093051
154,0.0
103,2885697.45753498
134,0.0
2,8, 1, 8, 0,24, 0.00,60.00,Sunday         
10,0.0
11,425378.438676979
90,0.0
87,18.
153,842.334430993363
154,0.0
103,3032403.95157611
134,0.0
2,9, 1, 9, 0, 1, 0.00,60.00,Monday         
10,0.0
11,485315.557861063
90,0.0
87,18.
153,869.942401983916
154,0.0
103,3131792.6471421
134,0.0
2,9, 1, 9, 0, 2, 0.00,60.00,Monday         
10,0.0
11,538791.320034199
90,0.0
87,18.
153,872.997659170277
154,0.0
103,3142791.573013
134,0.0
2,9, 1, 9, 0, 3, 0.00,60.00,Monday         
10,0.0
11,572855.884207998
90,0.0
87,18.
153,879.97159583824
154,0.0
103,3167897.74501766
134,0.0
2,9, 1, 9, 0, 4, 0.00,60.00,Monday         
10,0.0
11,595002.571343803
90,0.0
87,18.
153,871.283227120271
154,0.0
103,3136619.61763297
134,0.0
2,9, 1, 9, 0, 5, 0.00,60.00,Monday         
10,0.0
11,609106.146683843
90,0.0
87,18.
153,900.396348192488
154,0.0
103,3241426.85349296
134,0.0
2,9, 1, 9, 0, 6, 0.00,60.00,Monday         
10,0.0
11,637003.637896148
90,0.0
87,18.
153,900.585075584103
154,0.0