Program Version,EnergyPlus, Version 8.8, YMD=2015.03.22 20:57
1,5,Environment Title[],Latitude[deg],Longitude[deg],Time Zone[],Elevation[m]
2,6,Day of Simulation[],Month[],Day of Month[],DST Indicator[1=yes 0=no],Hour[],StartMinute[],EndMinute[],DayType
3,3,Cumulative Day of Simulation[],Month[],Day of Month[],DST Indicator[1=yes 0=no],DayType  ! When Daily Report Variables Requested
4,2,Cumulative Days of Simulation[],Month[]  ! When Monthly Report Variables Requested
5,1,Cumulative Days of Simulation[] ! When Run Period Report Variables Requested
163,1,ZONE1,Zone Opaque Surface Inside Faces Total Conduction Heat Gain Energy [J] !Hourly
164,1,ZONE1,Zone Opaque Surface Inside Faces Total Conduction Heat Loss Energy [J] !Hourly
240,1,ZONE1,Zone Thermostat Air Temperature [C] !Hourly
334,1,OFFICE,Zone Thermal Comfort Fanger Model PMV [] !Hourly
335,1,OFFICE,Zone Thermal Comfort Fanger Model PPD [%] !Hourly
336,1,OFFICE,Zone Thermal Comfort Clothing Surface Temperature [C] !Hourly
337,1,OFFICE,Zone Thermal Comfort Mean Radiant Temperature [C] !Hourly
338,1,OFFICE,Zone Thermal Comfort Operative Temperature [C] !Hourly
346,1,ZONE1,Zone Thermal Comfort ASHRAE 55 Simple Model Summer or Winter Clothes Not Comfortable Time [hr] !Hourly
399,1,BLOCK1:ZONE1 IDEAL LOADS AIR SYSTEM,Zone Ideal Loads Supply Air Total Heating Rate [W] !Hourly
400,1,BLOCK1:ZONE1 IDEAL LOADS AIR SYSTEM,Zone Ideal Loads Supply Air Total Cooling Rate [W] !Hourly
349,1,DistrictHeating:HVAC [J] !Hourly
380,1,DistrictCooling:HVAC [J] !Hourly
End of Data Dictionary
1,ANNUAL,  45.53,-122.95,  -8.00,  62.00
2,1, 1, 1, 0, 1, 0.00,60.00,Sunday         
163,0.0
164,394463.137745042
334,-1.38425844849529
335,44.6750811931791
336,24.8033330279582
337,17.5129679124218
338,17.7564839562109
346,0.0
240,18.
399,549.689166221821
400,0.0
349,1978880.99839856
380,0.0
2,1, 1, 1, 0, 2, 0.00,60.00,Sunday         
163,0.0
164,450865.333540112
334,-1.41303090712384
335,46.2077413447685
336,24.7942033380202
337,17.4725365973685
338,17.7362682986843
346,0.0
240,18.
399,575.041320670512
400,0.0
349,2070148.75441384
380,0.0
2,1, 1, 1, 0, 3, 0.00,60.00,Sunday         
163,0.0
164,479587.327337024
334,-1.42036456307619
335,46.6000905844401
336,24.79334260636
337,17.4687242711292
338,17.7343621355646
346,0.0
240,18.
399,572.525966797312
400,0.0
349,2061093.48047032
380,0.0
2,1, 1, 1, 0, 4, 0.00,60.00,Sunday         
163,0.0
164,464438.594139077
334,-1.41900585385575
335,46.5273084453607
336,24.798639142402
337,17.4921830095835
338,17.7460915047917
346,0.0
240,18.
399,578.295468363522
400,0.0
349,2081863.68610868
380,0.0
2,1, 1, 1, 0, 5, 0.00,60.00,Sunday         
163,0.0
164,449440.508372549
334,-1.41625671401041
335,46.3801296526519
336,24.8015065619459
337,17.5048809735462
338,17.7524404867731
346,0.0
240,18.
399,562.321028078864
400,0.0
349,2024355.70108391
380,0.0
2,1, 1, 1, 0, 6, 0.00,60.00,Sunday         
163,0.0
164,472595.98067664
334,-1.41173910248698
335,46.1384544638069
336,24.8043891942486
337,17.5176444695126
338,17.7588222347563
346,0.0
240,18.
399,598.641617612038
400,0.0
349,2155109.82340334
380,0.0
2,1, 1, 1, 0, 7, 0.00,60.00,Sunday         
163,0.0
164,444989.009705036
334,-1.79008135150374
335,66.5065466293699
336,25.6088754707089
337,17.5267210823335
338,17.7633605411667
346,0.0
240,18.
399,621.920911439156
400,0.0
349,2238915.28118096
380,0.0
2,1, 1, 1, 0, 8, 0.00,60.00,Sunday         
163,0.0
164,4248324.70112303
334,-1.18289132157707
335,34.6025666506598
336,26.7633559567033
337,19.1831074461011
338,20.1025922624531
346,1.
240,21.022077078805
399,1575.41018305672
400,0.0
349,5671476.65900419
380,0.0
2,1, 1, 1, 0, 9, 0.00,60.00,Sunday         
163,0.0
164,1441233.36307651
334,-1.05301413922212
335,28.4084147557076
336,27.0034629306941
337,20.1544234790863
338,20.5772117395431
346,1.
240,21.
399,814.528682533016
400,0.0
349,2932303.25711886
380,0.0
2,1, 1, 1, 0,10, 0.00,60.00,Sunday         
163,0.0
164,779062.719032494
334,-1.01877627242399
335,26.9172592964839
336,27.0447880327755
337,20.3592174509355
338,20.6796087254677
346,1.
240,21.
399,771.758458636
400,0.0
349,2778330.4510896
380,0.0
2,1, 1, 1, 0,11, 0.00,60.00,Sunday         
163,0.0
164,813845.080840251
334,-1.00735096665608
335,26.4303372162795
336,27.0496275761675
337,20.382702143429
338,20.6913510717145
346,0.75
240,21.
399,771.682727287691
400,0.0
349,2778057.81823569
380,0.0
2,1, 1, 1, 0,12, 0.00,60.00,Sunday         
163,0.0
164,729510.087284931
334,-0.994602180807503
335,25.8931577173121
336,27.0707708039513
337,20.4830016772908
338,20.7415008386454
346,0.0
240,21.
399,679.551329250032
400,0.0
349,2446384.78530012
380,0.0
2,1, 1, 1, 0,13, 0.00,60.00,Sunday         
163,0.0
164,617536.975683581
334,-0.994022626490687
335,25.8686584986127
336,27.0715266932959
337,20.4865902727218
338,20.7432951363609
346,0.0
240,21.
399,704.848413686074
400,0.0
349,2537454.28926987
380,0.0
2,1, 1, 1, 0,14, 0.00,60.00,Sunday         
163,0.0
164,535931.127750826
334,-0.995850733198468
335,25.9452717627477
336,27.0678560688658
337,20.4691846965942
338,20.7345923482971
346,0.0
240,21.
399,696.969212180246
400,0.0
349,2509089.16384889
380,0.0
2,1, 1, 1, 0,15, 0.00,60.00,Sunday         
163,0.0
164,750495.319458221
334,-0.993231074547921
335,25.835694005604
336,27.073586704666
337,20.4963532599032
338,20.7481766299516
346,0.0
240,21.
399,624.864622731249
400,0.0
349,2249512.6418325
380,0.0
2,1, 1, 1, 0,16, 0.00,60.00,Sunday         
163,0.0
164,504405.816187549
334,-0.988480391341349
335,25.6371847307907
336,27.0831649125793
337,20.5417571981241
338,20.770878599062
346,0.0
240,21.
399,654.680459315197
400,0.0
349,2356849.65353471
380,0.0
2,1, 1, 1, 0,17, 0.00,60.00,Sunday         
163,0.0
164,329701.344485003
334,-0.99655385896424
335,25.974925935805
336,27.0671963259718
337,20.4660525790801
338,20.73302628954
346,0.2
240,21.
399,659.869650180018
400,0.0
349,2375530.74064807
380,0.0
2,1, 1, 1, 0,18, 0.00,60.00,Sunday         
163,0.0
164,468468.075229666
334,-1.0016740451452
335,26.1901927737909
336,27.0570533969989
337,20.4179423034837
338,20.7089711517418
346,0.75
240,21.
399,654.489866137199
400,0.0
349,2356163.51809392
380,0.0
2,1, 1, 1, 0,19, 0.00,60.00,Sunday         
163,2736611.31827361
164,25679.4339259082
334,-1.52931253967252
335,52.6901451404887
336,26.0517499718302
337,19.0378286144103
338,18.6781199974077
346,1.
240,18.3184113804051
399,40.4854685072608
400,0.0
349,145747.686626139
380,0.0
2,1, 1, 1, 0,20, 0.00,60.00,Sunday         
163,513733.094013075
164,0.0
334,-1.7226534786343
335,62.9591477302757
336,25.6915121779536
337,17.933268294296
338,17.9666341471483
346,1.
240,18.0000000000005
399,300.142462615216
400,0.0
349,1080512.86541478
380,0.0
2,1, 1, 1, 0,21, 0.00,60.00,Sunday         
163,55740.3121557778
164,41202.9797961892
334,-1.74934183307793
335,64.3745350959284
336,25.6426576383887
337,17.6911557777746
338,17.8455778888873
346,0.0
240,18.
399,446.390216205084
400,0.0
349,1607004.7783383
380,0.0
2,1, 1, 1, 0,22, 0.00,60.00,Sunday         
163,0.0
164,248336.030190595
334,-1.75483430504311
335,64.6639926251077
336,25.6222454759648
337,17.5918322668453
338,17.7959161334226
346,0.0
240,18.
399,507.276414474115
400,0.0
349,1826195.09210681
380,0.0
2,1, 1, 1, 0,23, 0.00,60.00,Sunday         
163,0.0
164,364092.363844516
334,-1.75806367836517
335,64.8338751817253
336,25.6127900532165
337,17.5457894979692
338,17.7728947489846
346,0.0
240,18.
399,499.74361330014
400,0.0
349,1799077.0078805
380,0.0
2,1, 1, 1, 0,24, 0.00,60.00,Sunday         
163,0.0
164,409891.506384929
334,-1.7571906210711
335,64.7879427783349
336,25.6091279271089
337,17.5279509230381
338,17.763975461519
346,0.0
240,18.
399,496.247636029465
400,0.0
349,1786491.48970607
380,0.0
2,2, 1, 2, 0, 1, 0.00,60.00,Monday         
163,0.0
164,417510.183780719
334,-1.75071299841328
335,64.446913356631
336,25.6070783791685
337,17.5179658014491
338,17.7589829007245
346,0.0
240,18.
399,508.142251541898
400,0.0
349,1829312.10555083
380,0.0
2,2, 1, 2, 0, 2, 0.00,60.00,Monday         
163,0.0
164,437624.712453371
334,-1.75096487210652
335,64.4601960843234
336,25.6026053642946
337,17.4961704551025
338,17.7480852275512
346,0.0
240,18.
399,530.591804629266
400,0.0
349,1910130.49666536
380,0.0
2,2, 1, 2, 0, 3, 0.00,60.00,Monday         
163,0.0
164,457870.454920409
334,-1.75231609316067
335,64.5314006880402
336,25.5994409937356
337,17.4807490892382
338,17.7403745446191
346,0.0
240,18.
399,543.293849591503
400,0.0
349,1955857.85852941
380,0.0
2,2, 1, 2, 0, 4, 0.00,60.00,Monday         
163,0.0
164,476746.356709998
334,-1.7522599234249
335,64.5284404974329
336,25.5991175492374
337,17.4791726426367
338,17.7395863213184
346,0.0
240,18.
399,526.953280241847
400,0.0
349,1897031.80887065
380,0.0
2,2, 1, 2, 0, 5, 0.00,60.00,Monday         
163,0.0
164,534256.216297701
334,-1.74719139530732
335,64.2611389859836
336,25.6059851123773
337,17.5126385526357
338,17.7563192763178
346,1.
240,18.
399,486.062558380917
400,0.0
349,1749825.2101713
380,0.0
2,2, 1, 2, 0, 6, 0.00,60.00,Monday         
163,0.0
164,618421.575810214
334,-1.73881383652369
335,63.818328782422
336,25.6174980057966
337,17.5687172194503
338,17.7843586097252
346,1.
240,18.
399,428.085056253053
400,0.0
349,1541106.20251099
380,0.0
2,2, 1, 2, 0, 7, 0.00,60.00,Monday         
163,0.0
164,911131.301159673
334,-1.70837553887389
335,62.1993215479921
336,25.6143407444618
337,17.6829099622835
338,17.8414549811418
346,1.
240,18.
399,179.859651491575
400,0.0
349,647494.745369671
380,0.0
2,2, 1, 2, 0, 8, 0.00,60.00,Monday         
163,0.0
164,4732204.22105475
334,-1.07524868675713
335,29.6735224959577
336,26.8068886823973
337,19.4817725571929
338,20.2577861324828
346,0.7
240,21.0337997077726
399,807.126052827855
400,0.0
349,2905653.79018028
380,0.0
2,2, 1, 2, 0, 9, 0.00,60.00,Monday         
163,0.0
164,2385382.96891577
334,-0.898983732240725
335,22.1033335919343
336,27.1351527401269
337,20.68458428577
338,20.9207957465442
346,0.0
240,21.1570072073184
399,2.60465313379206
400,0.0
349,9376.7512816514
380,0.0
2,2, 1, 2, 0,10, 0.00,60.00,Monday         
163,1791.60534564288
164,1203203.79503814
334,-0.849607097784826
335,20.2386546716171
336,27.2308406082114
337,21.1478002409721
338,21.1477950442242
346,0.0
240,21.1477898474763
399,0.0
400,0.0
349,0.0
380,0.0
2,2, 1, 2, 0,11, 0.00,60.00,Monday         
163,0.0
164,1064161.91488498
334,-0.816165705227511
335,19.0566204096641
336,27.2896038026721
337,21.32960992648
338,21.2683174489424
346,0.0
240,21.2070249714047
399,0.0
400,0.0
349,0.0
380,0.0
2,2, 1, 2, 0,12, 0.00,60.00,Monday         
163,82396.7404482003
164,665857.39952546
334,-0.793697319954549
335,18.2878086833337
336,27.3199611130253
337,21.4901370677226
338,21.3506164837373
346,0.0
240,21.2110958997519
399,0.0
400,0.0
349,0.0
380,0.0
2,2, 1, 2, 0,13, 0.00,60.00,Monday         
163,29789.4705282968
164,768303.47422007
334,-0.772387281060403
335,17.5796036068232
336,27.3536711727663
337,21.6548573644605
338,21.4198214326622
346,0.0
240,21.1847855008638
399,0.0
400,0.0
349,0.0
380,0.0
2,2, 1, 2, 0,14, 0.00,60.00,Monday         
163,30228.7755565569
164,208829.732387015
334,-0.778904133075983
335,17.7888015518895
336,27.3266536005693
337,21.6983431267861
338,21.383607570944
346,0.0
240,21.068872015102
399,0.0
400,0.0
349,0.0
380,0.0
2,2, 1, 2, 0,15, 0.00,60.00,Monday         
163,0.0
164,472305.283792641
334,-0.754299669935625
335,16.990843033376
336,27.361773761155
337,21.7292878731502
338,21.454712777785
346,0.0
240,21.1801376824198
399,0.0
400,0.0
349,0.0
380,0.0
2,2, 1, 2, 0,16, 0.00,60.00,Monday         
163,4326.43538181885
164,229176.643915597
334,-0.703487736594019
335,15.4096729676887
336,27.4406888910854
337,21.8596197043845
338,21.6039571325518
346,0.0
240,21.348294560719
399,0.0
400,0.0
349,0.0
380,0.0
2,2, 1, 2, 0,17, 0.00,60.00,Monday         
163,326804.697673549
164,160063.730673596
334,-0.749415595936798
335,16.8358739808983
336,27.3567954080018
337,21.6382107879497
338,21.4288888677057
346,0.0
240,21.2195669474618
399,0.0
400,0.0
349,0.0
380,0.0
2,2, 1, 2, 0,18, 0.00,60.00,Monday         
163,300994.477604203
164,331215.981453016
334,-0.81391058046608
335,18.982194064496
336,27.2730287427542
337,21.2985627704835
338,21.2406505227888
346,0.0
240,21.1827382750941
399,4.01437588059905
400,0.0
349,14451.7531701566
380,0.0
2,2, 1, 2, 0,19, 0.00,60.00,Monday         
163,3521332.62523975
164,0.0
334,-1.31704446025826
335,41.8582210910486
336,26.336278364488
337,19.8332826254401
338,19.3189563484254
346,0.85
240,18.8046300714108
399,0.0
400,0.0
349,0.0
380,0.0
2,2, 1, 2, 0,20, 0.00,60.00,Monday         
163,1320152.54267584
164,0.0
334,-1.66114769788557
335,59.6559581317464
336,25.7155423273331
337,18.1522847285949
338,18.0853913515251
346,1.
240,18.0184979744553
399,175.372190643405
400,0.0
349,631339.886316258
380,0.0
2,2, 1, 2, 0,21, 0.00,60.00,Monday         
163,112178.901969248
164,31931.3995041441
334,-1.7279097961895
335,63.2392904405946
336,25.6124892423191
337,17.6739170417136
338,17.8369585208568
346,1.
240,18.
399,442.562782012094
400,0.0
349,1593226.01524354
380,0.0
2,2, 1, 2, 0,22, 0.00,60.00,Monday         
163,1750.29040818409
164,250341.990633048
334,-1.75773957718005
335,64.8163458845371
336,25.5759451457551
337,17.4966192532391
338,17.7483096266196
346,1.
240,18.
399,578.482517747993
400,0.0
349,2082537.06389277
380,0.0
2,2, 1, 2, 0,23, 0.00,60.00,Monday         
163,0.0
164,468468.786456511
334,-1.77453986642098
335,65.6972987861772
336,25.5563488784299
337,17.4014143938293
338,17.7007071969146
346,1.
240,18.
399,667.512797011408
400,0.0
349,2403046.06924107
380,0.0
2,2, 1, 2, 0,24, 0.00,60.00,Monday         
163,0.0
164,515375.040092644
334,-1.7777675991618
335,65.8657717177165
336,25.5490986900711
337,17.3661671373764
338,17.6830835686882
346,0.0
240,18.
399,723.415002994368
400,0.0
349,2604294.01077973
380,0.0
2,3, 1, 3, 0, 1, 0.00,60.00,Tuesday        
163,0.0
164,504948.343781533
334,-1.79042559831626
335,66.5241705704633
336,25.540032930964
337,17.322073324596
338,17.661036662298
346,0.0
240,18.
399,797.356223961595
400,0.0
349,2870482.40626174
380,0.0
2,3, 1, 3, 0, 2, 0.00,60.00,Tuesday        
163,0.0
164,599353.490426241
334,-1.80484197160283
335,67.2699530666753
336,25.5271241928286
337,17.2592572032811
338,17.6296286016405
346,0.0
240,18.
399,841.643074896983
400,0.0
349,3029915.06962914
380,0.0
2,3, 1, 3, 0, 3, 0.00,60.00,Tuesday        
163,0.0
164,648668.7063779
334,-1.81288435886736
335,67.68378302547
336,25.5190452834645
337,17.2199247068851
338,17.6099623534425
346,0.0
240,18.
399,872.527761624633
400,0.0
349,3141099.94184868
380,0.0
2,3, 1, 3, 0, 4, 0.00,60.00,Tuesday        
163,0.0
164,591990.631283003
334,-1.81944628314563
335,68.0203125758244
336,25.5144051931791
337,17.1973271601791
338,17.5986635800895
346,0.0
240,18.
399,920.162903711057
400,0.0
349,3312586.45335981
380,0.0
2,3, 1, 3, 0, 5, 0.00,60.00,Tuesday        
163,0.0
164,778063.940181858
334,-1.81639209329794
335,67.8638276439046
336,25.5177518733829
337,17.2136264105854
338,17.6068132052927
346,1.
240,18.
399,883.292985363215
400,0.0
349,3179854.74730757
380,0.0
2,3, 1, 3, 0, 6, 0.00,60.00,Tuesday        
163,0.0
164,900997.042276884
334,-1.81566748677023
335,67.8265278771728
336,25.5274950312162
337,17.2610619779417
338,17.6305309889709
346,1.
240,18.
399,744.930758887348
400,0.0
349,2681750.73199445
380,0.0
2,3, 1, 3, 0, 7, 0.00,60.00,Tuesday        
163,0.0
164,1173641.34038903
334,-1.34842843858867
335,42.785154310179
336,24.6175747572543
337,17.3980270449275
338,17.6990135224637
346,1.
240,18.
399,411.406369540556
400,0.0
349,1481062.930346
380,0.0
2,3, 1, 3, 0, 8, 0.00,60.00,Tuesday        
163,0.0
164,4991761.6047683
334,-0.771739923731259
335,17.9190225843865
336,25.9701454339159
337,19.2666593770437
338,20.1488509055045
346,1.
240,21.0310424339652
399,989.182074683862
400,0.0
349,3561055.4688619
380,0.0
2,3, 1, 3, 0, 9, 0.00,60.00,Tuesday        
163,0.0
164,2267549.27950222
334,-0.634199216998532
335,13.4498634829987
336,26.2776405757399
337,20.4158010356556
338,20.7079005178278
346,0.15
240,21.
399,120.656502652684
400,0.0
349,434363.409549662
380,0.0
2,3, 1, 3, 0,10, 0.00,60.00,Tuesday        
163,0.0
164,1742959.16010445
334,-0.561709118609562
335,11.6357275993236
336,26.4353973543931
337,20.8730166803643
338,21.0263956790887
346,0.0
240,21.1797746778131
399,3.56097913017049
400,0.0
349,12819.5248686138
380,0.0
2,3, 1, 3, 0,11, 0.00,60.00,Tuesday        
163,0.0
164,1118096.96970239
334,-0.512743147700638
335,10.5039534251096
336,26.5263311248909
337,21.2237914497737
338,21.1902973204759
346,0.0
240,21.1568031911781
399,0.0
400,0.0
349,0.0
380,0.0
2,3, 1, 3, 0,12, 0.00,60.00,Tuesday        
163,5912.45931594194
164,943277.928081855
334,-0.46674124556623
335,9.55822888763771
336,26.5948717420353
337,21.4972388305748
338,21.3495372744846
346,0.0
240,21.2018357183944
399,0.0
400,0.0
349,0.0
380,0.0
2,3, 1, 3, 0,13, 0.00,60.00,Tuesday        
163,60436.4697843198
164,576537.014630329
334,-0.43019542658246
335,8.86536341707608
336,26.6557007700463
337,21.7342494344529
338,21.4619182228433
346,0.0
240,21.1895870112338
399,0.0
400,0.0
349,0.0
380,0.0
2,3, 1, 3, 0,14, 0.00,60.00,Tuesday        
163,75694.2127626871
164,171621.048221565
334,-0.451511390567778
335,9.25545559566665
336,26.5972634866745
337,21.6846192245727
338,21.369237867698
346,0.0
240,21.0538565108232
399,0.0
400,0.0
349,0.0
380,0.0
2,3, 1, 3, 0,15, 0.00,60.00,Tuesday        
163,0.0
164,318136.658040047
334,-0.459034301790151
335,9.40174992814117
336,26.577486695626
337,21.6142652355507
338,21.3315079837584
346,0.0
240,21.0487507319661
399,0.0
400,0.0
349,0.0
380,0.0
2,3, 1, 3, 0,16, 0.00,60.00,Tuesday        
163,102695.500886956
164,254681.408373194
334,-0.443728503445433
335,9.11568070927575
336,26.6060186052742
337,21.6150404168777
338,21.3742859782736
346,0.0
240,21.1335315396695
399,0.0
400,0.0
349,0.0
380,0.0
2,3, 1, 3, 0,17, 0.00,60.00,Tuesday        
163,151876.252435323
164,313813.384762992
334,-0.432393920711317
335,8.90301575731073
336,26.6175459940207
337,21.5296128116211
338,21.3893975068803
346,0.0
240,21.2491822021395
399,0.0
400,0.0
349,0.0
380,0.0
2,3, 1, 3, 0,18, 0.00,60.00,Tuesday        
163,270611.809864697
164,337122.121301319
334,-0.472744115158838
335,9.67509907103597
336,26.5465075888118
337,21.301286140065
338,21.2370661645997
346,0.0
240,21.1728461891344
399,0.0
400,0.0
349,0.0
380,0.0
2,3, 1, 3, 0,19, 0.00,60.00,Tuesday        
163,3485233.40861057
164,0.0
334,-0.919328690398579
335,23.5635493840226
336,25.4911767237417
337,19.8705327457976
338,19.3300805859972
346,0.85
240,18.7896284261967
399,0.0
400,0.0
349,0.0
380,0.0
2,3, 1, 3, 0,20, 0.00,60.00,Tuesday        
163,1309751.46742121
164,0.0
334,-1.18926708151554
335,34.7517303748836
336,24.8599807951367
337,18.3029278303305
338,18.2002000862174
346,1.
240,18.0974723421043
399,77.4204668919347
400,0.0
349,278713.680810965
380,0.0
2,3, 1, 3, 0,21, 0.00,60.00,Tuesday        
163,182205.144962279
164,12150.2270080026
334,-1.26762234956571
335,38.6166299224073
336,24.7068920893826
337,17.7859022991831
338,17.8929511495915
346,1.
240,18.
399,331.138704943896
400,0.0
349,1192099.33779803
380,0.0
2,3, 1, 3, 0,22, 0.00,60.00,Tuesday        
163,6810.8313309849
164,144077.337231871
334,-1.30139531307519
335,40.3412150840071
336,24.6622586088029
337,17.5922664057624
338,17.7961332028812
346,1.
240,18.
399,510.196222885483
400,0.0
349,1836706.40238774
380,0.0
2,3, 1, 3, 0,23, 0.00,60.00,Tuesday        
163,0.0
164,380831.711649788
334,-1.33069887530137
335,41.8581362876342
336,24.6294809665534
337,17.449823962813
338,17.7249119814065
346,1.
240,18.
399,650.664499010257
400,0.0
349,2342392.19643693
380,0.0
2,3, 1, 3, 0,24, 0.00,60.00,Tuesday        
163,0.0
164,488157.031458877
334,-1.34686290641168
335,42.7025701959973
336,24.6093662971745
337,17.3623142674165
338,17.6811571337083
346,0.0
240,18.
399,724.522357170074
400,0.0
349,2608280.48581227
380,0.0
2,4, 1, 4, 0, 1, 0.00,60.00,Wednesday      
163,0.0
164,540705.262595561
334,-1.36060774206616
335,43.4245242146909
336,24.5951820655966
337,17.3005582158109
338,17.6502791079055
346,0.0
240,18.
399,777.851022677562
400,0.0
349,2800263.68163922
380,0.0
2,4, 1, 4, 0, 2, 0.00,60.00,Wednesday      
163,0.0
164,617203.562880886
334,-1.36585415191848
335,43.7009761984558
336,24.5875535356728
337,17.2673299651867
338,17.6336649825934
346,0.0
240,18.
399,792.827754647523
400,0.0
349,2854179.91673108
380,0.0
2,4, 1, 4, 0, 3, 0.00,60.00,Wednesday      
163,0.0
164,641510.383605546
334,-1.36728768818208
335,43.776611350072
336,24.5847992215496
337,17.2553298896816
338,17.6276649448408
346,0.0
240,18.
399,799.853609161099
400,0.0
349,2879472.99297995
380,0.0
2,4, 1, 4, 0, 4, 0.00,60.00,Wednesday      
163,0.0
164,552278.010906723
334,-1.36584341416455
335,43.7004271678876
336,24.5837147259917
337,17.2506045025302
338,17.6253022512651
346,0.0
240,18.
399,827.669642717194
400,0.0
349,2979610.7137819
380,0.0
2,4, 1, 4, 0, 5, 0.00,60.00,Wednesday      
163,0.0
164,758329.673500921
334,-1.35341700817129
335,43.046506423089
336,24.5910211102723
337,17.2824343763975
338,17.6412171881987
346,1.
240,18.
399,740.13333033714
400,0.0
349,2664479.98921371
380,0.0
2,4, 1, 4, 0, 6, 0.00,60.00,Wednesday      
163,0.0
164,826896.218891105
334,-1.33481651748075
335,42.0726288472723
336,24.6104765303084
337,17.3671457099319
338,17.6835728549659
346,1.
240,18.
399,577.36781289932
400,0.0
349,2078524.12643755
380,0.0
2,4, 1, 4, 0, 7, 0.00,60.00,Wednesday      
163,0.0
164,1103477.71321862
334,-1.49450881635831
335,50.6020117266873
336,25.0215888708296
337,17.4996442535454
338,17.7498221267727
346,1.
240,18.
399,333.361197788909
400,0.0
349,1200100.31204007
380,0.0
2,4, 1, 4, 0, 8, 0.00,60.00,Wednesday      
163,0.0
164,4889433.35222126
334,-0.904295274429942
335,22.6121088763046
336,26.3063266425015
337,19.3280690088079
338,20.1796638711139
346,1.
240,21.0312587334199
399,950.045130578954
400,0.0
349,3420162.47008424
380,0.0
2,4, 1, 4, 0, 9, 0.00,60.00,Wednesday      
163,0.0
164,2356736.17210262
334,-0.764108724662171
335,17.311568951917
336,26.6011803646731
337,20.4609514161793
338,20.7419708931199
346,5.000000000000000E-002
240,21.0229903700604
399,68.3830679259611
400,0.0
349,246179.04453346
380,0.0
2,4, 1, 4, 0,10, 0.00,60.00,Wednesday      
163,0.0
164,1764637.12943082
334,-0.657381418883331
335,14.0914658226486
336,26.819153436961
337,21.0827942742216
338,21.1730446246646
346,0.0
240,21.2632949751076
399,0.0
400,0.0
349,0.0
380,0.0
2,4, 1, 4, 0,11, 0.00,60.00,Wednesday      
163,0.0
164,1054743.18908148
334,-0.62186010629836
335,13.1265429283959
336,26.8746787253271
337,21.4128696536832
338,21.3101800948604
346,0.0
240,21.2074905360375
399,0.0
400,0.0
349,0.0
380,0.0
2,4, 1, 4, 0,12, 0.00,60.00,Wednesday      
163,82828.574939052
164,684043.446028137
334,-0.589623530534848
335,12.2921426477167
336,26.9249212307637
337,21.6332007968871
338,21.421306711918
346,0.0
240,21.2094126269489
399,0.0
400,0.0
349,0.0
380,0.0
2,4, 1, 4, 0,13, 0.00,60.00,Wednesday      
163,166012.459631921
164,419331.398261123
334,-0.578229378393343
335,12.009670418486
336,26.946051161253
337,21.68888651049
338,21.4597905807032
346,0.0
240,21.2306946509165
399,0.0
400,0.0
349,0.0
380,0.0
2,4, 1, 4, 0,14, 0.00,60.00,Wednesday      
163,146503.812472984
164,486017.760443408
334,-0.591565287922412
335,12.3406558106507
336,26.9150304831362
337,21.5936086886571
338,21.3948075991372
346,0.0
240,21.1960065096173
399,0.0
400,0.0
349,0.0
380,0.0
2,4, 1, 4, 0,15, 0.00,60.00,Wednesday      
163,63104.7491854531
164,587798.754365865
334,-0.599925769442997
335,12.5504126140429
336,26.9014608284762
337,21.5838468621831
338,21.3755208219973
346,0.0
240,21.1671947818115
399,0.0
400,0.0
349,0.0
380,0.0
2,4, 1, 4, 0,16, 0.00,60.00,Wednesday      
163,134546.425232584
164,467704.635554369
334,-0.587480678551231
335,12.2372296856456
336,26.9439799755931
337,21.6676639342903
338,21.4479856316055
346,0.0
240,21.2283073289206
399,0.0
400,0.0
349,0.0
380,0.0
2,4, 1, 4, 0,17, 0.00,60.00,Wednesday      
163,239711.747623827
164,266556.440200469
334,-0.604654707296316
335,12.6736319723864
336,26.9100614175496
337,21.5316419663948
338,21.3858337055324
346,0.0
240,21.24002544467
399,0.0
400,0.0
349,0.0
380,0.0
2,4, 1, 4, 0,18, 0.00,60.00,Wednesday      
163,186902.660305694
164,398763.652184299
334,-0.631052302990146
335,13.3648744525444
336,26.8625493745725
337,21.2741480879419
338,21.2733100238277
346,0.0
240,21.2724719597136
399,0.0
400,0.0
349,0.0
380,0.0
2,4, 1, 4, 0,19, 0.00,60.00,Wednesday      
163,3563008.79900024
164,0.0
334,-1.11945361496644
335,32.2553824801503
336,25.805091079448
337,19.7681264187844
338,19.259303777678
346,0.85
240,18.7504811365716
399,0.0
400,0.0
349,0.0
380,0.0
2,4, 1, 4, 0,20, 0.00,60.00,Wednesday      
163,1283568.50057735
164,0.0
334,-1.41331582859472
335,46.2302233930199
336,25.1708628505262
337,18.1335159998527
338,18.0798040217614
346,1.
240,18.0260920436702
399,178.688149721476
400,0.0
349,643277.338997314
380,0.0
2,4, 1, 4, 0,21, 0.00,60.00,Wednesday      
163,104928.834139478
164,46714.9421798797
334,-1.47247551835315
335,49.4078637414255
336,25.0549655978319
337,17.6512588819046
338,17.8256294409523
346,1.
240,18.
399,441.413621356733
400,0.0
349,1589089.03688424
380,0.0
2,4, 1, 4, 0,22, 0.00,60.00,Wednesday      
163,0.0
164,274269.806209629
334,-1.49788280227321
335,50.7852057262194
336,25.0171193804861
337,17.4793245247241
338,17.739662262362
346,1.
240,18.
399,553.97860988261
400,0.0
349,1994322.99557739
380,0.0
2,4, 1, 4, 0,23, 0.00,60.00,Wednesday      
163,0.0
164,486146.353960765
334,-1.50806278893839
335,51.3383054823951
336,24.998564857596
337,17.3949203098418
338,17.6974601549209
346,1.
240,18.
399,628.831442143767
400,0.0
349,2263793.19171756
380,0.0
2,4, 1, 4, 0,24, 0.00,60.00,Wednesday      
163,0.0
164,547072.600888568
334,-1.51165585132394
335,51.5336716271906
336,24.9928682679058
337,17.3689923507035
338,17.6844961753517
346,0.0
240,18.
399,644.699394532546
400,0.0
349,2320917.82031717
380,0.0
2,5, 1, 5, 0, 1, 0.00,60.00,Thursday       
163,0.0
164,521272.845640821
334,-1.51337643214759
335,51.6272461394089
336,24.9939893712594
337,17.3740957723946
338,17.6870478861973
346,0.0
240,18.
399,655.378717875554
400,0.0
349,2359363.38435199
380,0.0
2,5, 1, 5, 0, 2, 0.00,60.00,Thursday       
163,0.0
164,542620.771601792
334,-1.51098276316802
335,51.4970759991425
336,24.9952895307846
337,17.3800139832708
338,17.6900069916354
346,0.0
240,18.
399,660.608779163611
400,0.0
349,2378191.604989
380,0.0
2,5, 1, 5, 0, 3, 0.00,60.00,Thursday       
163,0.0
164,555013.481506122
334,-1.50556071943469
335,51.2022918052096
336,24.996480497508
337,17.3854347828048
338,17.6927173914024
346,0.0
240,18.
399,639.227592426285
400,0.0
349,2301219.33273463
380,0.0
2,5, 1, 5, 0, 4, 0.00,60.00,Thursday       
163,0.0
164,534717.598731238
334,-1.50878591921354
335,51.377616937312
336,24.9999502457298
337,17.4012262215454
338,17.7006131107727
346,0.0
240,18.
399,631.011581445722
400,0.0
349,2271641.6932046
380,0.0
2,5, 1, 5, 0, 5, 0.00,60.00,Thursday       
163,0.0
164,544009.094437608
334,-1.5063598102349
335,51.2457400704236
336,25.0018712630981
337,17.4099680741264
338,17.7049840370632
346,1.
240,18.
399,622.13556979736
400,0.0
349,2239688.0512705
380,0.0
2,5, 1, 5, 0, 6, 0.00,60.00,Thursday       
163,0.0
164,745323.09093419
334,-1.49416981280461
335,50.5835737367871
336,25.0085087929918
337,17.4401660051302
338,17.7200830025651
346,1.
240,18.
399,535.104409403318
400,0.0
349,1926375.87385195
380,0.0
2,5, 1, 5, 0, 7, 0.00,60.00,Thursday       
163,0.0
164,1074709.56430369
334,-1.59000079035063
335,55.8008894608823
336,25.2834986186522
337,17.5625522291284
338,17.7812761145642
346,1.
240,18.
399,262.195373250859
400,0.0
349,943903.343703092
380,0.0
2,5, 1, 5, 0, 8, 0.00,60.00,Thursday       
163,0.0
164,4733360.73675053
334,-0.975059009645742
335,25.4115856254273
336,26.5308360608257
337,19.3960119840417
338,20.2140382613495
346,0.9
240,21.0320645386572
399,905.391063621498
400,0.0
349,3259407.82903739
380,0.0
2,5, 1, 5, 0, 9, 0.00,60.00,Thursday       
163,0.0
164,2332270.19197225
334,-0.827204154647323
335,19.4521630372677
336,26.8262043661872
337,20.5267929103241
338,20.7941281206851
346,0.0
240,21.0614633310462
399,45.7131769258863
400,0.0
349,164567.436933191
380,0.0
2,5, 1, 5, 0,10, 0.00,60.00,Thursday       
163,0.0
164,1576762.07637539
334,-0.737165532052808
335,16.4480702011892
336,27.0132085253676
337,21.1026848405621
338,21.1727570033209
346,0.0
240,21.2428291660798
399,0.0
400,0.0
349,0.0
380,0.0
2,5, 1, 5, 0,11, 0.00,60.00,Thursday       
163,0.0
164,878456.265121803
334,-0.721433361888913
335,15.9576590939421
336,27.0426392419341
337,21.3593091150783
338,21.2600589928825
346,0.0
240,21.1608088706868
399,0.0
400,0.0
349,0.0
380,0.0
2,5, 1, 5, 0,12, 0.00,60.00,Thursday       
163,2218.92074242976
164,476986.471701179
334,-0.696535104174736
335,15.2051038733983
336,27.0753340197017
337,21.4691959853275
338,21.3283923421166
346,0.0
240,21.1875886989057
399,0.0
400,0.0
349,0.0
380,0.0
2,5, 1, 5, 0,13, 0.00,60.00,Thursday       
163,19941.4124735818
164,606028.404622789
334,-0.681180519556679
335,14.7579895626974
336,27.0869587298682
337,21.4810618842869
338,21.3514968725042
346,0.0
240,21.2219318607215
399,0.0
400,0.0
349,0.0
380,0.0
2,5, 1, 5, 0,14, 0.00,60.00,Thursday       
163,58918.2067189883
164,706025.241349004
334,-0.672777610809279
335,14.5166472670459
336,27.0996892787077
337,21.5629334883379
338,21.3821531206405
346,0.0
240,21.2013727529432
399,0.0
400,0.0
349,0.0
380,0.0
2,5, 1, 5, 0,15, 0.00,60.00,Thursday       
163,135011.751466159
164,465125.521678992
334,-0.669916037091083
335,14.4343701890122
336,27.1054728331816
337,21.6200221407514
338,21.3980756728119
346,0.0
240,21.1761292048723
399,0.0
400,0.0
349,0.0
380,0.0
2,5, 1, 5, 0,16, 0.00,60.00,Thursday       
163,144530.53579157
164,385676.305223092
334,-0.673763223857316
335,14.5451189816562
336,27.0961671623989
337,21.5627120257005
338,21.3784821955364
346,0.0
240,21.1942523653724