Program Version,EnergyPlus, Version 8.8, YMD=2015.03.22 17:37
1,5,Environment Title[],Latitude[deg],Longitude[deg],Time Zone[],Elevation[m]
2,6,Day of Simulation[],Month[],Day of Month[],DST Indicator[1=yes 0=no],Hour[],StartMinute[],EndMinute[],DayType
3,3,Cumulative Day of Simulation[],Month[],Day of Month[],DST Indicator[1=yes 0=no],DayType  ! When Daily Report Variables Requested
4,2,Cumulative Days of Simulation[],Month[]  ! When Monthly Report Variables Requested
5,1,Cumulative Days of Simulation[] ! When Run Period Report Variables Requested
10,1,ZONE1,Zone Opaque Surface Inside Faces Total Conduction Heat Gain Energy [J] !Hourly
11,1,ZONE1,Zone Opaque Surface Inside Faces Total Conduction Heat Loss Energy [J] !Hourly
87,1,ZONE1,Zone Thermostat Air Temperature [C] !Hourly
90,1,ZONE1,Zone Thermal Comfort ASHRAE 55 Simple Model Summer or Winter Clothes Not Comfortable Time [hr] !Hourly
153,1,BLOCK1:ZONE1 IDEAL LOADS AIR SYSTEM,Zone Ideal Loads Supply Air Total Heating Rate [W] !Hourly
154,1,BLOCK1:ZONE1 IDEAL LOADS AIR SYSTEM,Zone Ideal Loads Supply Air Total Cooling Rate [W] !Hourly
103,1,DistrictHeating:HVAC [J] !Hourly
134,1,DistrictCooling:HVAC [J] !Hourly
End of Data Dictionary
1,ANNUAL,  51.15,  -0.18,   0.00,  62.00
2,1, 1, 1, 0, 1, 0.00,60.00,Sunday         
10,0.0
11,304953.645965164
90,0.0
87,18.
153,745.338780597298
154,0.0
103,2683219.61015027
134,0.0
2,1, 1, 1, 0, 2, 0.00,60.00,Sunday         
10,0.0
11,420291.380949875
90,0.0
87,18.
153,870.143024348295
154,0.0
103,3132514.88765386
134,0.0
2,1, 1, 1, 0, 3, 0.00,60.00,Sunday         
10,0.0
11,546619.108806008
90,0.0
87,18.
153,963.41256466796
154,0.0
103,3468285.23280466
134,0.0
2,1, 1, 1, 0, 4, 0.00,60.00,Sunday         
10,0.0
11,628267.316785283
90,0.0
87,18.
153,1013.66045199291
154,0.0
103,3649177.62717449
134,0.0
2,1, 1, 1, 0, 5, 0.00,60.00,Sunday         
10,0.0
11,678940.887514247
90,0.0
87,18.
153,1082.7576553335
154,0.0
103,3897927.55920059
134,0.0
2,1, 1, 1, 0, 6, 0.00,60.00,Sunday         
10,0.0
11,715276.301768708
90,0.0
87,18.
153,1113.98173381026
154,0.0
103,4010334.24171693
134,0.0
2,1, 1, 1, 0, 7, 0.00,60.00,Sunday         
10,0.0
11,767923.338599506
90,0.0
87,18.
153,1033.35308379862
154,0.0
103,3720071.10167504
134,0.0
2,1, 1, 1, 0, 8, 0.00,60.00,Sunday         
10,0.0
11,4566796.53418941
90,0.0
87,21.0266536206416
153,1881.11987565214
154,0.0
103,6772031.55234771
134,0.0
2,1, 1, 1, 0, 9, 0.00,60.00,Sunday         
10,0.0
11,1710213.76838825
90,0.0
87,21.
153,1225.14103405745
154,0.0
103,4410507.72260682
134,0.0
2,1, 1, 1, 0,10, 0.00,60.00,Sunday         
10,0.0
11,1179192.34868019
90,0.0
87,21.
153,1072.54341029843
154,0.0
103,3861156.27707435
134,0.0
2,1, 1, 1, 0,11, 0.00,60.00,Sunday         
10,0.0
11,1029344.89214587
90,0.0
87,21.
153,924.794642283539
154,0.0
103,3329260.71222074
134,0.0
2,1, 1, 1, 0,12, 0.00,60.00,Sunday         
10,0.0
11,835637.245344582
90,0.0
87,21.
153,780.166080086043
154,0.0
103,2808597.88830976
134,0.0
2,1, 1, 1, 0,13, 0.00,60.00,Sunday         
10,0.0
11,618795.035589576
90,0.0
87,21.
153,721.655340863182
154,0.0
103,2597959.22710746
134,0.0
2,1, 1, 1, 0,14, 0.00,60.00,Sunday         
10,0.0
11,404803.033351799
90,0.0
87,21.
153,696.704922669671
154,0.0
103,2508137.72161081
134,0.0
2,1, 1, 1, 0,15, 0.00,60.00,Sunday         
10,0.0
11,225162.016996598
90,0.0
87,21.
153,730.059131851273
154,0.0
103,2628212.87466458
134,0.0
2,1, 1, 1, 0,16, 0.00,60.00,Sunday         
10,0.0
11,176064.302231115
90,0.0
87,21.
153,783.964929689014
154,0.0
103,2822273.74688045
134,0.0
2,1, 1, 1, 0,17, 0.00,60.00,Sunday         
10,9132.14763943924
11,276845.038909817
90,0.0
87,21.
153,878.213718021119
154,0.0
103,3161569.38487603
134,0.0
2,1, 1, 1, 0,18, 0.00,60.00,Sunday         
10,0.0
11,421257.890289427
90,0.0
87,21.
153,957.912622022701
154,0.0
103,3448485.43928172
134,0.0
2,1, 1, 1, 0,19, 0.00,60.00,Sunday         
10,2771766.49400168
11,22437.9200016004
90,0.0
87,18.2440280835431
153,166.537603872689
154,0.0
103,599535.37394168
134,0.0
2,1, 1, 1, 0,20, 0.00,60.00,Sunday         
10,619913.942326635
11,0.0
90,0.0
87,18.
153,566.674382498081
154,0.0
103,2040027.77699309
134,0.0
2,1, 1, 1, 0,21, 0.00,60.00,Sunday         
10,43628.78251464
11,55055.1291223676
90,0.0
87,18.
153,701.755725644459
154,0.0
103,2526320.61232005
134,0.0
2,1, 1, 1, 0,22, 0.00,60.00,Sunday         
10,0.0
11,248185.230243054
90,0.0
87,18.
153,738.330717402709
154,0.0
103,2657990.58264975
134,0.0
2,1, 1, 1, 0,23, 0.00,60.00,Sunday         
10,0.0
11,334347.228587331
90,0.0
87,18.
153,737.394516084148
154,0.0
103,2654620.25790293
134,0.0
2,1, 1, 1, 0,24, 0.00,60.00,Sunday         
10,0.0
11,359786.800207987
90,0.0
87,18.
153,691.711609927419
154,0.0
103,2490161.79573871
134,0.0
2,2, 1, 2, 0, 1, 0.00,60.00,Monday         
10,0.0
11,354728.938376039
90,0.0
87,18.
153,611.91852144396
154,0.0
103,2202906.67719826
134,0.0
2,2, 1, 2, 0, 2, 0.00,60.00,Monday         
10,0.0
11,331193.550377516
90,0.0
87,18.
153,532.44172376915
154,0.0
103,1916790.20556894
134,0.0
2,2, 1, 2, 0, 3, 0.00,60.00,Monday         
10,0.0
11,297363.385689687
90,0.0
87,18.
153,493.23404965164
154,0.0
103,1775642.5787459
134,0.0
2,2, 1, 2, 0, 4, 0.00,60.00,Monday         
10,0.0
11,277105.000400038
90,0.0
87,18.
153,488.41521499637
154,0.0
103,1758294.77398693
134,0.0
2,2, 1, 2, 0, 5, 0.00,60.00,Monday         
10,0.0
11,298949.054196875
90,0.0
87,18.
153,457.812823665089
154,0.0
103,1648126.16519432
134,0.0
2,2, 1, 2, 0, 6, 0.00,60.00,Monday         
10,0.0
11,266147.384423701
90,0.0
87,18.
153,442.471637642776
154,0.0
103,1592897.89551399
134,0.0
2,2, 1, 2, 0, 7, 0.00,60.00,Monday         
10,0.0
11,262427.383847774
90,0.0
87,18.
153,380.619203540318
154,0.0
103,1370229.13274515
134,0.0
2,2, 1, 2, 0, 8, 0.00,60.00,Monday         
10,0.0
11,3980771.15956137
90,0.0
87,21.0269960631949
153,1423.8134843748
154,0.0
103,5125728.54374929
134,0.0
2,2, 1, 2, 0, 9, 0.00,60.00,Monday         
10,0.0
11,1201653.27521303
90,0.0
87,21.
153,708.077742316064
154,0.0
103,2549079.87233783
134,0.0
2,2, 1, 2, 0,10, 0.00,60.00,Monday         
10,0.0
11,681069.519772057
90,0.0
87,21.
153,586.881504370862
154,0.0
103,2112773.4157351
134,0.0
2,2, 1, 2, 0,11, 0.00,60.00,Monday         
10,0.0
11,474516.070801058
90,0.0
87,21.
153,567.47244149854
154,0.0
103,2042900.78939474
134,0.0
2,2, 1, 2, 0,12, 0.00,60.00,Monday         
10,0.0
11,463991.980955867
90,0.0
87,21.
153,578.986859487072
154,0.0
103,2084352.69415346
134,0.0
2,2, 1, 2, 0,13, 0.00,60.00,Monday         
10,0.0
11,491828.963983374
90,0.0
87,21.
153,550.922819246338
154,0.0
103,1983322.14928682
134,0.0
2,2, 1, 2, 0,14, 0.00,60.00,Monday         
10,0.0
11,519443.1869509
90,0.0
87,21.
153,507.315283695344
154,0.0
103,1826335.02130324
134,0.0
2,2, 1, 2, 0,15, 0.00,60.00,Monday         
10,0.0
11,331091.276419659
90,0.0
87,21.
153,485.065202445306
154,0.0
103,1746234.7288031
134,0.0
2,2, 1, 2, 0,16, 0.00,60.00,Monday         
10,14046.1380223414
11,126504.335784929
90,0.0
87,21.
153,530.392698988861
154,0.0
103,1909413.7163599
134,0.0
2,2, 1, 2, 0,17, 0.00,60.00,Monday         
10,0.0
11,240105.118645907
90,0.0
87,21.
153,633.469564991483
154,0.0
103,2280490.43396934
134,0.0
2,2, 1, 2, 0,18, 0.00,60.00,Monday         
10,0.0
11,366037.135377578
90,0.0
87,21.
153,682.407556904065
154,0.0
103,2456667.20485463
134,0.0
2,2, 1, 2, 0,19, 0.00,60.00,Monday         
10,2738743.36804586
11,19957.3787847402
90,0.0
87,18.3685500361897
153,38.3640919538786
154,0.0
103,138110.731033963
134,0.0
2,2, 1, 2, 0,20, 0.00,60.00,Monday         
10,747001.140683952
11,0.0
90,0.0
87,18.0000000000007
153,366.720662796285
154,0.0
103,1320194.38606663
134,0.0
2,2, 1, 2, 0,21, 0.00,60.00,Monday         
10,81502.5810801528
11,28781.8857372157
90,0.0
87,18.
153,520.620337917796
154,0.0
103,1874233.21650407
134,0.0
2,2, 1, 2, 0,22, 0.00,60.00,Monday         
10,0.0
11,229103.849228652
90,0.0
87,18.
153,588.536236726166
154,0.0
103,2118730.4522142
134,0.0
2,2, 1, 2, 0,23, 0.00,60.00,Monday         
10,0.0
11,408766.312252333
90,0.0
87,18.
153,657.519941262892
154,0.0
103,2367071.78854641
134,0.0
2,2, 1, 2, 0,24, 0.00,60.00,Monday         
10,0.0
11,431797.917086115
90,0.0
87,18.
153,634.255127195115
154,0.0
103,2283318.45790241
134,0.0
2,3, 1, 3, 0, 1, 0.00,60.00,Tuesday        
10,0.0
11,388183.791728198
90,0.0
87,18.
153,640.873615250704
154,0.0
103,2307145.01490254
134,0.0
2,3, 1, 3, 0, 2, 0.00,60.00,Tuesday        
10,0.0
11,383576.016988271
90,0.0
87,18.
153,676.930937073975
154,0.0
103,2436951.37346631
134,0.0
2,3, 1, 3, 0, 3, 0.00,60.00,Tuesday        
10,0.0
11,406018.662540059
90,0.0
87,18.
153,752.139412439832
154,0.0
103,2707701.8847834
134,0.0
2,3, 1, 3, 0, 4, 0.00,60.00,Tuesday        
10,0.0
11,471366.459215439
90,0.0
87,18.
153,769.280971204684
154,0.0
103,2769411.49633686
134,0.0
2,3, 1, 3, 0, 5, 0.00,60.00,Tuesday        
10,0.0
11,497815.132553241
90,0.0
87,18.
153,737.754125081882
154,0.0
103,2655914.85029477
134,0.0
2,3, 1, 3, 0, 6, 0.00,60.00,Tuesday        
10,0.0
11,494222.618123974
90,0.0
87,18.
153,737.551271577787
154,0.0
103,2655184.57768003
134,0.0
2,3, 1, 3, 0, 7, 0.00,60.00,Tuesday        
10,0.0
11,511980.677811961
90,0.0
87,18.
153,670.423844387139
154,0.0
103,2413525.8397937
134,0.0
2,3, 1, 3, 0, 8, 0.00,60.00,Tuesday        
10,0.0
11,4270825.7052526
90,0.0
87,21.0202335064898
153,1684.83039936296
154,0.0
103,6065389.43770666
134,0.0
2,3, 1, 3, 0, 9, 0.00,60.00,Tuesday        
10,0.0
11,1461280.7563092
90,0.0
87,21.
153,927.613482514223
154,0.0
103,3339408.5370512
134,0.0
2,3, 1, 3, 0,10, 0.00,60.00,Tuesday        
10,0.0
11,966957.791065272
90,0.0
87,21.
153,768.770053463326
154,0.0
103,2767572.19246797
134,0.0
2,3, 1, 3, 0,11, 0.00,60.00,Tuesday        
10,0.0
11,816502.178585564
90,0.0
87,21.
153,666.774999692512
154,0.0
103,2400389.99889304
134,0.0
2,3, 1, 3, 0,12, 0.00,60.00,Tuesday        
10,0.0
11,675521.119670604
90,0.0
87,21.
153,588.183579249199
154,0.0
103,2117460.88529712
134,0.0
2,3, 1, 3, 0,13, 0.00,60.00,Tuesday        
10,0.0
11,520402.016692798
90,0.0
87,21.
153,551.980264637574
154,0.0
103,1987128.95269527
134,0.0
2,3, 1, 3, 0,14, 0.00,60.00,Tuesday        
10,0.0
11,349511.052809516
90,0.0
87,21.
153,546.519634440268
154,0.0
103,1967470.68398496
134,0.0
2,3, 1, 3, 0,15, 0.00,60.00,Tuesday        
10,0.0
11,198941.891517129
90,0.0
87,21.
153,571.358576748694
154,0.0
103,2056890.8762953
134,0.0
2,3, 1, 3, 0,16, 0.00,60.00,Tuesday        
10,0.0
11,179691.161594084
90,0.0
87,21.
153,621.61660007813
154,0.0
103,2237819.76028127
134,0.0
2,3, 1, 3, 0,17, 0.00,60.00,Tuesday        
10,0.0
11,327150.344271729
90,0.0
87,21.
153,666.699171362635
154,0.0
103,2400117.01690549
134,0.0
2,3, 1, 3, 0,18, 0.00,60.00,Tuesday        
10,4325.6600506024
11,353669.599700903
90,0.0
87,21.
153,728.254654684434
154,0.0
103,2621716.75686396
134,0.0
2,3, 1, 3, 0,19, 0.00,60.00,Tuesday        
10,2752867.086181
11,17756.4211496261
90,0.0
87,18.3154371146761
153,103.528046240617
154,0.0
103,372700.966466221
134,0.0
2,3, 1, 3, 0,20, 0.00,60.00,Tuesday        
10,625567.685959174
11,0.0
90,0.0
87,18.
153,516.744032010622
154,0.0
103,1860278.51523824
134,0.0
2,3, 1, 3, 0,21, 0.00,60.00,Tuesday        
10,26923.6171513056
11,105822.750313317
90,0.0
87,18.
153,674.690161363555
154,0.0
103,2428884.5809088
134,0.0
2,3, 1, 3, 0,22, 0.00,60.00,Tuesday        
10,0.0
11,373863.422552846
90,0.0
87,18.
153,755.123432511991
154,0.0
103,2718444.35704317
134,0.0
2,3, 1, 3, 0,23, 0.00,60.00,Tuesday        
10,0.0
11,513182.895424434
90,0.0
87,18.
153,840.969273453452
154,0.0
103,3027489.38443243
134,0.0
2,3, 1, 3, 0,24, 0.00,60.00,Tuesday        
10,0.0
11,560426.867642581
90,0.0
87,18.
153,820.615390029912
154,0.0
103,2954215.40410768
134,0.0
2,4, 1, 4, 0, 1, 0.00,60.00,Wednesday      
10,0.0
11,540002.829946671
90,0.0
87,18.
153,834.267345780052
154,0.0
103,3003362.44480819
134,0.0
2,4, 1, 4, 0, 2, 0.00,60.00,Wednesday      
10,0.0
11,565776.93159922
90,0.0
87,18.
153,838.540148912149
154,0.0
103,3018744.53608374
134,0.0
2,4, 1, 4, 0, 3, 0.00,60.00,Wednesday      
10,0.0
11,565060.673027797
90,0.0
87,18.
153,806.790327098351
154,0.0
103,2904445.17755407
134,0.0
2,4, 1, 4, 0, 4, 0.00,60.00,Wednesday      
10,0.0
11,536629.961148153
90,0.0
87,18.
153,834.057033914534
154,0.0
103,3002605.32209232
134,0.0
2,4, 1, 4, 0, 5, 0.00,60.00,Wednesday      
10,0.0
11,530749.198044202
90,0.0
87,18.
153,896.138798406262
154,0.0
103,3226099.67426255
134,0.0
2,4, 1, 4, 0, 6, 0.00,60.00,Wednesday      
10,0.0
11,566225.708613564
90,0.0
87,18.
153,929.408710984869
154,0.0
103,3345871.35954553
134,0.0
2,4, 1, 4, 0, 7, 0.00,60.00,Wednesday      
10,0.0
11,619104.512879995
90,0.0
87,18.
153,860.254446149178
154,0.0
103,3096916.00613704
134,0.0
2,4, 1, 4, 0, 8, 0.00,60.00,Wednesday      
10,0.0
11,4431863.79879291
90,0.0
87,21.0355945404244
153,1752.82727822408
154,0.0
103,6310178.2016067
134,0.0
2,4, 1, 4, 0, 9, 0.00,60.00,Wednesday      
10,0.0
11,1642500.42340657
90,0.0
87,21.
153,1124.906803672
154,0.0
103,4049664.49321921
134,0.0
2,4, 1, 4, 0,10, 0.00,60.00,Wednesday      
10,0.0
11,1157716.19023275
90,0.0
87,21.
153,912.685735576009
154,0.0
103,3285668.64807363
134,0.0
2,4, 1, 4, 0,11, 0.00,60.00,Wednesday      
10,0.0
11,738642.601552307
90,0.0
87,21.
153,836.118482529151
154,0.0
103,3010026.53710494
134,0.0
2,4, 1, 4, 0,12, 0.00,60.00,Wednesday      
10,0.0
11,816822.334536638
90,0.0
87,21.
153,816.356937515101
154,0.0
103,2938884.97505436
134,0.0
2,4, 1, 4, 0,13, 0.00,60.00,Wednesday      
10,0.0
11,695377.753555907
90,0.0
87,21.
153,736.000015774885
154,0.0
103,2649600.05678959
134,0.0
2,4, 1, 4, 0,14, 0.00,60.00,Wednesday      
10,0.0
11,533752.166936644
90,0.0
87,21.
153,692.37969061927
154,0.0
103,2492566.88622937
134,0.0
2,4, 1, 4, 0,15, 0.00,60.00,Wednesday      
10,0.0
11,427848.934844775
90,0.0
87,21.
153,684.107740084791
154,0.0
103,2462787.86430525
134,0.0
2,4, 1, 4, 0,16, 0.00,60.00,Wednesday      
10,1747.39765921388
11,210206.454010189
90,0.0
87,21.
153,742.092131108738
154,0.0
103,2671531.67199145
134,0.0
2,4, 1, 4, 0,17, 0.00,60.00,Wednesday      
10,0.0
11,353608.85833125
90,0.0
87,21.
153,841.415036064757
154,0.0
103,3029094.12983313
134,0.0
2,4, 1, 4, 0,18, 0.00,60.00,Wednesday      
10,0.0
11,526545.34732725
90,0.0
87,21.
153,905.599060349434
154,0.0
103,3260156.61725796
134,0.0
2,4, 1, 4, 0,19, 0.00,60.00,Wednesday      
10,2745834.61288294
11,28553.0795597738
90,0.0
87,18.1890577918105
153,239.540767064665
154,0.0
103,862346.761432795
134,0.0
2,4, 1, 4, 0,20, 0.00,60.00,Wednesday      
10,451804.818096317
11,0.0
90,0.0
87,18.
153,662.485529629382
154,0.0
103,2384947.90666577
134,0.0
2,4, 1, 4, 0,21, 0.00,60.00,Wednesday      
10,78.2135157070854
11,229467.715768423
90,0.0
87,18.
153,781.360170345185
154,0.0
103,2812896.61324267
134,0.0
2,4, 1, 4, 0,22, 0.00,60.00,Wednesday      
10,0.0
11,469468.679850691
90,0.0
87,18.
153,833.665041985442
154,0.0
103,3001194.15114759
134,0.0
2,4, 1, 4, 0,23, 0.00,60.00,Wednesday      
10,0.0
11,561958.358986103
90,0.0
87,18.
153,936.39207868176
154,0.0
103,3371011.48325434
134,0.0
2,4, 1, 4, 0,24, 0.00,60.00,Wednesday      
10,0.0
11,603223.54737805
90,0.0
87,18.
153,939.38996273042
154,0.0
103,3381803.86582951
134,0.0
2,5, 1, 5, 0, 1, 0.00,60.00,Thursday       
10,0.0
11,623102.649206157
90,0.0
87,18.
153,918.558535509989
154,0.0
103,3306810.72783596
134,0.0
2,5, 1, 5, 0, 2, 0.00,60.00,Thursday       
10,0.0
11,641827.290317997
90,0.0
87,18.
153,869.615820277893
154,0.0
103,3130616.95300042
134,0.0
2,5, 1, 5, 0, 3, 0.00,60.00,Thursday       
10,0.0
11,619276.726583489
90,0.0
87,18.
153,807.649802385071
154,0.0
103,2907539.28858625
134,0.0
2,5, 1, 5, 0, 4, 0.00,60.00,Thursday       
10,0.0
11,463619.771350389
90,0.0
87,18.
153,794.371041516793
154,0.0
103,2859735.74946046
134,0.0
2,5, 1, 5, 0, 5, 0.00,60.00,Thursday       
10,0.0
11,463083.797611221
90,0.0
87,18.
153,803.261137657569
154,0.0
103,2891740.09556725
134,0.0
2,5, 1, 5, 0, 6, 0.00,60.00,Thursday       
10,0.0
11,448146.222749724
90,0.0
87,18.
153,787.935462717953
154,0.0
103,2836567.66578463
134,0.0
2,5, 1, 5, 0, 7, 0.00,60.00,Thursday       
10,0.0
11,433400.333143439
90,0.0
87,18.
153,660.512415561016
154,0.0
103,2377844.69601966
134,0.0
2,5, 1, 5, 0, 8, 0.00,60.00,Thursday       
10,0.0
11,4194006.31798683
90,0.0
87,21.0203223279593
153,1724.29645932369
154,0.0
103,6207467.25356527
134,0.0
2,5, 1, 5, 0, 9, 0.00,60.00,Thursday       
10,0.0
11,1380176.60523274
90,0.0
87,21.
153,974.808177261017
154,0.0
103,3509309.43813966
134,0.0
2,5, 1, 5, 0,10, 0.00,60.00,Thursday       
10,0.0
11,1003129.67275672
90,0.0
87,21.
153,820.1601696757
154,0.0
103,2952576.61083252
134,0.0
2,5, 1, 5, 0,11, 0.00,60.00,Thursday       
10,0.0
11,899785.020372013
90,0.0
87,21.
153,674.855920962678
154,0.0
103,2429481.31546564
134,0.0
2,5, 1, 5, 0,12, 0.00,60.00,Thursday       
10,0.0
11,711985.34714353
90,0.0
87,21.
153,579.066210325867
154,0.0
103,2084638.35717312
134,0.0
2,5, 1, 5, 0,13, 0.00,60.00,Thursday       
10,0.0
11,553542.241629424
90,0.0
87,21.
153,543.856335354713
154,0.0
103,1957882.80727697
134,0.0
2,5, 1, 5, 0,14, 0.00,60.00,Thursday       
10,0.0
11,329519.317069612
90,0.0
87,21.
153,549.145289825402
154,0.0
103,1976923.04337145
134,0.0
2,5, 1, 5, 0,15, 0.00,60.00,Thursday       
10,0.0
11,135421.279680265
90,0.0
87,21.
153,598.159926301886
154,0.0
103,2153375.73468679
134,0.0
2,5, 1, 5, 0,16, 0.00,60.00,Thursday       
10,0.0
11,151776.40188308
90,0.0
87,21.
153,680.643772099615
154,0.0
103,2450317.57955861
134,0.0
2,5, 1, 5, 0,17, 0.00,60.00,Thursday       
10,8710.19455886115
11,241043.775423917
90,0.0
87,21.
153,849.833357739746
154,0.0
103,3059400.08786309
134,0.0
2,5, 1, 5, 0,18, 0.00,60.00,Thursday       
10,0.0
11,493815.558860529
90,0.0
87,21.
153,962.847982024063
154,0.0
103,3466252.73528663
134,0.0
2,5, 1, 5, 0,19, 0.00,60.00,Thursday       
10,2724429.90342658
11,30479.6862730804
90,0.0
87,18.1596503102924
153,231.316862952613
154,0.0
103,832740.706629407
134,0.0
2,5, 1, 5, 0,20, 0.00,60.00,Thursday       
10,444691.239106265
11,0.0
90,0.0
87,18.
153,614.978598270505
154,0.0
103,2213922.95377382
134,0.0
2,5, 1, 5, 0,21, 0.00,60.00,Thursday       
10,1598.17155094154
11,180662.45000495
90,0.0
87,18.
153,714.472364223398
154,0.0
103,2572100.51120423
134,0.0
2,5, 1, 5, 0,22, 0.00,60.00,Thursday       
10,0.0
11,403784.736949267
90,0.0
87,18.
153,771.514362613611
154,0.0
103,2777451.705409
134,0.0
2,5, 1, 5, 0,23, 0.00,60.00,Thursday       
10,0.0
11,489089.963688126
90,0.0
87,18.
153,970.007196203951
154,0.0
103,3492025.90633422
134,0.0
2,5, 1, 5, 0,24, 0.00,60.00,Thursday       
10,0.0
11,515680.858959714
90,0.0
87,18.
153,976.093149322577
154,0.0
103,3513935.33756128
134,0.0
2,6, 1, 6, 0, 1, 0.00,60.00,Friday         
10,0.0
11,520838.443954225
90,0.0
87,18.
153,985.658853223431
154,0.0
103,3548371.87160435
134,0.0
2,6, 1, 6, 0, 2, 0.00,60.00,Friday         
10,0.0
11,525621.665481783
90,0.0
87,18.
153,970.175015442672
154,0.0
103,3492630.05559362
134,0.0
2,6, 1, 6, 0, 3, 0.00,60.00,Friday         
10,0.0
11,526564.331760415
90,0.0
87,18.
153,964.243755709
154,0.0
103,3471277.5205524
134,0.0
2,6, 1, 6, 0, 4, 0.00,60.00,Friday         
10,0.0
11,521781.320627904
90,0.0
87,18.
153,967.638908496293
154,0.0
103,3483500.07058665
134,0.0
2,6, 1, 6, 0, 5, 0.00,60.00,Friday         
10,0.0
11,515929.418825031
90,0.0
87,18.
153,960.977264609598
154,0.0
103,3459518.15259455
134,0.0
2,6, 1, 6, 0, 6, 0.00,60.00,Friday         
10,0.0
11,513402.904809345
90,0.0
87,18.
153,953.410093018912
154,0.0
103,3432276.33486808
134,0.0
2,6, 1, 6, 0, 7, 0.00,60.00,Friday         
10,0.0
11,526263.292510494
90,0.0
87,18.
153,804.934856927187
154,0.0
103,2897765.48493787
134,0.0
2,6, 1, 6, 0, 8, 0.00,60.00,Friday         
10,0.0
11,4342924.20874343
90,0.0
87,21.0388776812053
153,1739.77094988097
154,0.0
103,6263175.41957149
134,0.0
2,6, 1, 6, 0, 9, 0.00,60.00,Friday         
10,0.0
11,1595496.47707262
90,0.0
87,21.
153,1121.03839839619
154,0.0
103,4035738.23422628
134,0.0
2,6, 1, 6, 0,10, 0.00,60.00,Friday         
10,0.0
11,1136366.90735377
90,0.0
87,21.
153,920.175283027665
154,0.0
103,3312631.01889959
134,0.0
2,6, 1, 6, 0,11, 0.00,60.00,Friday         
10,0.0
11,874834.764655305
90,0.0
87,21.
153,786.451017629816
154,0.0
103,2831223.66346734
134,0.0
2,6, 1, 6, 0,12, 0.00,60.00,Friday         
10,0.0
11,700327.335785639
90,0.0
87,21.
153,688.310289836234
154,0.0
103,2477917.04341044
134,0.0
2,6, 1, 6, 0,13, 0.00,60.00,Friday         
10,0.0
11,530721.284327487
90,0.0
87,21.
153,628.891599084942
154,0.0
103,2264009.75670579
134,0.0
2,6, 1, 6, 0,14, 0.00,60.00,Friday         
10,0.0
11,407949.43971849
90,0.0
87,21.
153,607.618262403768
154,0.0
103,2187425.74465356
134,0.0
2,6, 1, 6, 0,15, 0.00,60.00,Friday         
10,59844.8217227173
11,102516.321062159
90,0.0
87,21.
153,707.314829407898
154,0.0
103,2546333.38586843
134,0.0
2,6, 1, 6, 0,16, 0.00,60.00,Friday         
10,0.0
11,435269.103912364
90,0.0
87,21.
153,790.606497362494
154,0.0
103,2846183.39050498
134,0.0
2,6, 1, 6, 0,17, 0.00,60.00,Friday         
10,0.0
11,494423.126709181
90,0.0
87,21.
153,784.805682885117
154,0.0
103,2825300.45838642
134,0.0
2,6, 1, 6, 0,18, 0.00,60.00,Friday         
10,0.0
11,456069.565258771
90,0.0
87,21.
153,826.095545664126
154,0.0
103,2973943.96439085
134,0.0
2,6, 1, 6, 0,19, 0.00,60.00,Friday         
10,2752851.0298476
11,24763.3459059267
90,0.0
87,18.2203007281533
153,127.287840095652
154,0.0
103,458236.224344346
134,0.0
2,6, 1, 6, 0,20, 0.00,60.00,Friday         
10,566849.245699678
11,0.0
90,0.0
87,18.
153,467.000444360355
154,0.0
103,1681201.59969728
134,0.0
2,6, 1, 6, 0,21, 0.00,60.00,Friday         
10,24440.2109610095
11,132204.356206238
90,0.0
87,18.
153,545.146244501869
154,0.0
103,1962526.48020673
134,0.0
2,6, 1, 6, 0,22, 0.00,60.00,Friday         
10,0.0
11,315114.155165394
90,0.0
87,18.
153,554.505514546924
154,0.0
103,1996219.85236892
134,0.0
2,6, 1, 6, 0,23, 0.00,60.00,Friday         
10,0.0
11,373243.392295235
90,0.0
87,18.
153,613.236554060598
154,0.0
103,2207651.59461815
134,0.0
2,6, 1, 6, 0,24, 0.00,60.00,Friday         
10,0.0
11,335454.815179858
90,0.0
87,18.
153,643.494061231825
154,0.0
103,2316578.62043457
134,0.0
2,7, 1, 7, 0, 1, 0.00,60.00,Saturday       
10,0.0
11,421131.058347152
90,0.0
87,18.
153,660.573616264272
154,0.0
103,2378065.01855138
134,0.0
2,7, 1, 7, 0, 2, 0.00,60.00,Saturday       
10,0.0
11,375182.511294496
90,0.0
87,18.
153,674.390207667129
154,0.0
103,2427804.74760167
134,0.0
2,7, 1, 7, 0, 3, 0.00,60.00,Saturday       
10,0.0
11,450793.556251035
90,0.0
87,18.
153,673.987839501317
154,0.0
103,2426356.22220474
134,0.0
2,7, 1, 7, 0, 4, 0.00,60.00,Saturday       
10,0.0
11,376172.738146159
90,0.0
87,18.
153,673.45322965059
154,0.0
103,2424431.62674212
134,0.0
2,7, 1, 7, 0, 5, 0.00,60.00,Saturday       
10,0.0
11,401742.220240554
90,0.0
87,18.
153,713.891025822288
154,0.0
103,2570007.69296024
134,0.0
2,7, 1, 7, 0, 6, 0.00,60.00,Saturday       
10,0.0
11,427096.315697957
90,0.0
87,18.
153,745.918891795344
154,0.0
103,2685308.01046324
134,0.0
2,7, 1, 7, 0, 7, 0.00,60.00,Saturday       
10,0.0
11,446541.53086948
90,0.0
87,18.
153,680.585958203228
154,0.0
103,2450109.44953162
134,0.0
2,7, 1, 7, 0, 8, 0.00,60.00,Saturday       
10,0.0
11,4259009.17311475
90,0.0
87,21.0500041332031
153,1618.51506534977
154,0.0
103,5826654.23525917
134,0.0
2,7, 1, 7, 0, 9, 0.00,60.00,Saturday       
10,0.0
11,1517249.19009002
90,0.0
87,21.
153,1015.23085040858
154,0.0
103,3654831.06147088
134,0.0
2,7, 1, 7, 0,10, 0.00,60.00,Saturday       
10,0.0
11,1051369.23858169
90,0.0
87,21.
153,843.716864676666
154,0.0
103,3037380.712836
134,0.0
2,7, 1, 7, 0,11, 0.00,60.00,Saturday       
10,0.0
11,717420.469804436
90,0.0
87,21.
153,743.933733426477
154,0.0
103,2678161.44033532
134,0.0
2,7, 1, 7, 0,12, 0.00,60.00,Saturday       
10,0.0
11,624590.867016667
90,0.0
87,21.
153,685.916049503964
154,0.0
103,2469297.77821427
134,0.0
2,7, 1, 7, 0,13, 0.00,60.00,Saturday       
10,0.0
11,532492.536022883
90,0.0
87,21.
153,649.776360719199
154,0.0
103,2339194.89858912
134,0.0
2,7, 1, 7, 0,14, 0.00,60.00,Saturday       
10,0.0
11,468571.81185496
90,0.0
87,21.
153,632.89092944398
154,0.0
103,2278407.34599833
134,0.0
2,7, 1, 7, 0,15, 0.00,60.00,Saturday       
10,21405.2819526537
11,248419.101749061
90,0.0
87,21.
153,715.106666793449
154,0.0
103,2574384.00045642
134,0.0
2,7, 1, 7, 0,16, 0.00,60.00,Saturday       
10,0.0
11,400258.943948093
90,0.0
87,21.
153,789.725324857256
154,0.0
103,2843011.16948612
134,0.0
2,7, 1, 7, 0,17, 0.00,60.00,Saturday       
10,6108.19103941917
11,391257.691789276
90,0.0
87,21.
153,858.748461469316
154,0.0
103,3091494.46128954
134,0.0
2,7, 1, 7, 0,18, 0.00,60.00,Saturday       
10,0.0
11,516791.782399504
90,0.0
87,21.
153,921.66481878567
154,0.0
103,3317993.34762841
134,0.0
2,7, 1, 7, 0,19, 0.00,60.00,Saturday       
10,2704033.48605296
11,27741.529026304
90,0.0
87,18.1642130558973
153,240.905401208025
154,0.0
103,867259.444348889
134,0.0
2,7, 1, 7, 0,20, 0.00,60.00,Saturday       
10,481931.219868615
11,0.0
90,0.0
87,18.
153,616.5937862547
154,0.0
103,2219737.63051692
134,0.0
2,7, 1, 7, 0,21, 0.00,60.00,Saturday       
10,8858.93860196778
11,124814.501156757
90,0.0
87,18.
153,716.531197067765
154,0.0
103,2579512.30944395
134,0.0
2,7, 1, 7, 0,22, 0.00,60.00,Saturday       
10,0.0
11,365849.424795347
90,0.0
87,18.
153,732.158238591064
154,0.0
103,2635769.65892783
134,0.0
2,7, 1, 7, 0,23, 0.00,60.00,Saturday       
10,0.0
11,449613.798742523
90,0.0
87,18.
153,731.708781288569
154,0.0
103,2634151.61263885
134,0.0
2,7, 1, 7, 0,24, 0.00,60.00,Saturday       
10,0.0
11,466847.842866129
90,0.0
87,18.
153,734.881719279975
154,0.0
103,2645574.18940791
134,0.0
2,8, 1, 8, 0, 1, 0.00,60.00,Sunday         
10,0.0
11,486208.51299204
90,0.0
87,18.
153,735.377365097178
154,0.0
103,2647358.51434984
134,0.0
2,8, 1, 8, 0, 2, 0.00,60.00,Sunday         
10,0.0
11,468584.824762292
90,0.0
87,18.
153,768.055432957019
154,0.0
103,2764999.55864527
134,0.0
2,8, 1, 8, 0, 3, 0.00,60.00,Sunday         
10,0.0
11,484939.390087994
90,0.0
87,18.
153,824.691458689167
154,0.0
103,2968889.251281
134,0.0
2,8, 1, 8, 0, 4, 0.00,60.00,Sunday         
10,0.0
11,528266.271174132
90,0.0
87,18.
153,832.737438313062
154,0.0
103,2997854.77792702
134,0.0
2,8, 1, 8, 0, 5, 0.00,60.00,Sunday         
10,0.0
11,552086.406655741
90,0.0
87,18.
153,810.681722643858
154,0.0
103,2918454.20151789
134,0.0
2,8, 1, 8, 0, 6, 0.00,60.00,Sunday         
10,0.0
11,533881.050104381
90,0.0
87,18.
153,811.719672204842
154,0.0
103,2922190.81993743
134,0.0
2,8, 1, 8, 0, 7, 0.00,60.00,Sunday         
10,0.0
11,535129.391157089
90,0.0
87,18.
153,810.194696366355
154,0.0
103,2916700.90691888
134,0.0
2,8, 1, 8, 0, 8, 0.00,60.00,Sunday         
10,0.0
11,4321536.34316871
90,0.0
87,21.0435757451782
153,1712.01510926963
154,0.0
103,6163254.39337066
134,0.0
2,8, 1, 8, 0, 9, 0.00,60.00,Sunday         
10,0.0
11,1470217.48325004
90,0.0
87,21.
153,1064.71736051624
154,0.0
103,3832982.49785845
134,0.0
2,8, 1, 8, 0,10, 0.00,60.00,Sunday         
10,0.0
11,911011.687619482
90,0.0
87,21.
153,892.827020463096
154,0.0
103,3214177.27366715
134,0.0
2,8, 1, 8, 0,11, 0.00,60.00,Sunday         
10,0.0
11,645865.672963718
90,0.0
87,21.
153,910.394787143638
154,0.0
103,3277421.2337171
134,0.0
2,8, 1, 8, 0,12, 0.00,60.00,Sunday         
10,0.0
11,635320.030782352
90,0.0
87,21.
153,962.576625122173
154,0.0
103,3465275.85043982
134,0.0
2,8, 1, 8, 0,13, 0.00,60.00,Sunday         
10,0.0
11,577916.058289819
90,0.0
87,21.
153,970.726057113869
154,0.0
103,3494613.80560993
134,0.0
2,8, 1, 8, 0,14, 0.00,60.00,Sunday         
10,0.0
11,525163.727626972
90,0.0
87,21.
153,989.379315458584
154,0.0
103,3561765.5356509
134,0.0
2,8, 1, 8, 0,15, 0.00,60.00,Sunday         
10,0.0
11,496240.699863621
90,0.0
87,21.
153,978.119972630809
154,0.0
103,3521231.90147091
134,0.0
2,8, 1, 8, 0,16, 0.00,60.00,Sunday         
10,0.0
11,468838.809504934
90,0.0
87,21.
153,966.680676571138
154,0.0
103,3480050.4356561
134,0.0
2,8, 1, 8, 0,17, 0.00,60.00,Sunday         
10,0.0
11,468282.555443832
90,0.0
87,21.
153,972.533506772764
154,0.0
103,3501120.62438195
134,0.0
2,8, 1, 8, 0,18, 0.00,60.00,Sunday         
10,0.0
11,480815.679435652
90,0.0
87,21.
153,956.416234398578
154,0.0
103,3443098.44383488
134,0.0
2,8, 1, 8, 0,19, 0.00,60.00,Sunday         
10,2784742.81037122
11,23445.0207453682
90,0.0
87,18.2613473401458
153,142.395035961378
154,0.0
103,512622.129460961
134,0.0
2,8, 1, 8, 0,20, 0.00,60.00,Sunday         
10,656139.229302497
11,0.0
90,0.0
87,18.
153,520.840083255258
154,0.0
103,1875024.29971893
134,0.0
2,8, 1, 8, 0,21, 0.00,60.00,Sunday         
10,89604.9822514881
11,60071.2873522295
90,0.0
87,18.
153,656.580166186274
154,0.0
103,2363688.59827059
134,0.0
2,8, 1, 8, 0,22, 0.00,60.00,Sunday         
10,0.0
11,214485.913867233
90,0.0
87,18.
153,746.731925912273
154,0.0
103,2688234.93328418
134,0.0
2,8, 1, 8, 0,23, 0.00,60.00,Sunday         
10,0.0
11,346868.386593561
90,0.0
87,18.
153,800.307588620241
154,0.0
103,2881107.31903287
134,0.0
2,8, 1, 8, 0,24, 0.00,60.00,Sunday         
10,0.0
11,415932.89713306
90,0.0
87,18.
153,839.404164669135
154,0.0
103,3021854.99280889
134,0.0
2,9, 1, 9, 0, 1, 0.00,60.00,Monday         
10,0.0
11,472035.761621945
90,0.0
87,18.
153,866.105757730798
154,0.0
103,3117980.72783087
134,0.0
2,9, 1, 9, 0, 2, 0.00,60.00,Monday         
10,0.0
11,522716.841581073
90,0.0
87,18.
153,868.40808604629
154,0.0
103,3126269.10976664
134,0.0
2,9, 1, 9, 0, 3, 0.00,60.00,Monday         
10,0.0
11,554053.465830456
90,0.0
87,18.
153,874.653009610499
154,0.0
103,3148750.8345978
134,0.0
2,9, 1, 9, 0, 4, 0.00,60.00,Monday         
10,0.0
11,574392.920810982
90,0.0
87,18.
153,865.533130439318
154,0.0
103,3115919.26958154
134,0.0
2,9, 1, 9, 0, 5, 0.00,60.00,Monday         
10,0.0
11,587678.855225445
90,0.0
87,18.
153,894.445697338529
154,0.0
103,3220004.5104187
134,0.0
2,9, 1, 9, 0, 6, 0.00,60.00,Monday         
10,0.0
11,614112.767794673
90,0.0
87,18.
153,894.154801849121
154,0.0