Program Version,EnergyPlus, Version 8.8, YMD=2015.03.22 17:37
1,5,Environment Title[],Latitude[deg],Longitude[deg],Time Zone[],Elevation[m]
2,6,Day of Simulation[],Month[],Day of Month[],DST Indicator[1=yes 0=no],Hour[],StartMinute[],EndMinute[],DayType
3,3,Cumulative Day of Simulation[],Month[],Day of Month[],DST Indicator[1=yes 0=no],DayType  ! When Daily Meters Requested
4,2,Cumulative Days of Simulation[],Month[]  ! When Monthly Meters Requested
5,1,Cumulative Days of Simulation[] ! When Run Period Meters Requested
103,1,DistrictHeating:HVAC [J] !Hourly
134,1,DistrictCooling:HVAC [J] !Hourly
126,9,DistrictCooling:Facility [J] !Monthly  [Value,Min,Day,Hour,Minute,Max,Day,Hour,Minute]
95,9,DistrictHeating:Facility [J] !Monthly  [Value,Min,Day,Hour,Minute,Max,Day,Hour,Minute]
725,9,Carbon Equivalent:Facility [kg] !Monthly  [Value,Min,Day,Hour,Minute,Max,Day,Hour,Minute]
End of Data Dictionary
1,ANNUAL,  51.15,  -0.18,   0.00,  62.00
2,1, 1, 1, 0, 1, 0.00,60.00,Sunday         
103,2683219.61015027
134,0.0
2,1, 1, 1, 0, 2, 0.00,60.00,Sunday         
103,3132514.88765386
134,0.0
2,1, 1, 1, 0, 3, 0.00,60.00,Sunday         
103,3468285.23280466
134,0.0
2,1, 1, 1, 0, 4, 0.00,60.00,Sunday         
103,3649177.62717449
134,0.0
2,1, 1, 1, 0, 5, 0.00,60.00,Sunday         
103,3897927.55920059
134,0.0
2,1, 1, 1, 0, 6, 0.00,60.00,Sunday         
103,4010334.24171693
134,0.0
2,1, 1, 1, 0, 7, 0.00,60.00,Sunday         
103,3720071.10167504
134,0.0
2,1, 1, 1, 0, 8, 0.00,60.00,Sunday         
103,6772031.55234771
134,0.0
2,1, 1, 1, 0, 9, 0.00,60.00,Sunday         
103,4410507.72260682
134,0.0
2,1, 1, 1, 0,10, 0.00,60.00,Sunday         
103,3861156.27707435
134,0.0
2,1, 1, 1, 0,11, 0.00,60.00,Sunday         
103,3329260.71222074
134,0.0
2,1, 1, 1, 0,12, 0.00,60.00,Sunday         
103,2808597.88830976
134,0.0
2,1, 1, 1, 0,13, 0.00,60.00,Sunday         
103,2597959.22710746
134,0.0
2,1, 1, 1, 0,14, 0.00,60.00,Sunday         
103,2508137.72161081
134,0.0
2,1, 1, 1, 0,15, 0.00,60.00,Sunday         
103,2628212.87466458
134,0.0
2,1, 1, 1, 0,16, 0.00,60.00,Sunday         
103,2822273.74688045
134,0.0
2,1, 1, 1, 0,17, 0.00,60.00,Sunday         
103,3161569.38487603
134,0.0
2,1, 1, 1, 0,18, 0.00,60.00,Sunday         
103,3448485.43928172
134,0.0
2,1, 1, 1, 0,19, 0.00,60.00,Sunday         
103,599535.37394168
134,0.0
2,1, 1, 1, 0,20, 0.00,60.00,Sunday         
103,2040027.77699309
134,0.0
2,1, 1, 1, 0,21, 0.00,60.00,Sunday         
103,2526320.61232005
134,0.0
2,1, 1, 1, 0,22, 0.00,60.00,Sunday         
103,2657990.58264975
134,0.0
2,1, 1, 1, 0,23, 0.00,60.00,Sunday         
103,2654620.25790293
134,0.0
2,1, 1, 1, 0,24, 0.00,60.00,Sunday         
103,2490161.79573871
134,0.0
2,2, 1, 2, 0, 1, 0.00,60.00,Monday         
103,2202906.67719826
134,0.0
2,2, 1, 2, 0, 2, 0.00,60.00,Monday         
103,1916790.20556894
134,0.0
2,2, 1, 2, 0, 3, 0.00,60.00,Monday         
103,1775642.5787459
134,0.0
2,2, 1, 2, 0, 4, 0.00,60.00,Monday         
103,1758294.77398693
134,0.0
2,2, 1, 2, 0, 5, 0.00,60.00,Monday         
103,1648126.16519432
134,0.0
2,2, 1, 2, 0, 6, 0.00,60.00,Monday         
103,1592897.89551399
134,0.0
2,2, 1, 2, 0, 7, 0.00,60.00,Monday         
103,1370229.13274515
134,0.0
2,2, 1, 2, 0, 8, 0.00,60.00,Monday         
103,5125728.54374929
134,0.0
2,2, 1, 2, 0, 9, 0.00,60.00,Monday         
103,2549079.87233783
134,0.0
2,2, 1, 2, 0,10, 0.00,60.00,Monday         
103,2112773.4157351
134,0.0
2,2, 1, 2, 0,11, 0.00,60.00,Monday         
103,2042900.78939474
134,0.0
2,2, 1, 2, 0,12, 0.00,60.00,Monday         
103,2084352.69415346
134,0.0
2,2, 1, 2, 0,13, 0.00,60.00,Monday         
103,1983322.14928682
134,0.0
2,2, 1, 2, 0,14, 0.00,60.00,Monday         
103,1826335.02130324
134,0.0
2,2, 1, 2, 0,15, 0.00,60.00,Monday         
103,1746234.7288031
134,0.0
2,2, 1, 2, 0,16, 0.00,60.00,Monday         
103,1909413.7163599
134,0.0
2,2, 1, 2, 0,17, 0.00,60.00,Monday         
103,2280490.43396934
134,0.0
2,2, 1, 2, 0,18, 0.00,60.00,Monday         
103,2456667.20485463
134,0.0
2,2, 1, 2, 0,19, 0.00,60.00,Monday         
103,138110.731033963
134,0.0
2,2, 1, 2, 0,20, 0.00,60.00,Monday         
103,1320194.38606663
134,0.0
2,2, 1, 2, 0,21, 0.00,60.00,Monday         
103,1874233.21650407
134,0.0
2,2, 1, 2, 0,22, 0.00,60.00,Monday         
103,2118730.4522142
134,0.0
2,2, 1, 2, 0,23, 0.00,60.00,Monday         
103,2367071.78854641
134,0.0
2,2, 1, 2, 0,24, 0.00,60.00,Monday         
103,2283318.45790241
134,0.0
2,3, 1, 3, 0, 1, 0.00,60.00,Tuesday        
103,2307145.01490254
134,0.0
2,3, 1, 3, 0, 2, 0.00,60.00,Tuesday        
103,2436951.37346631
134,0.0
2,3, 1, 3, 0, 3, 0.00,60.00,Tuesday        
103,2707701.8847834
134,0.0
2,3, 1, 3, 0, 4, 0.00,60.00,Tuesday        
103,2769411.49633686
134,0.0
2,3, 1, 3, 0, 5, 0.00,60.00,Tuesday        
103,2655914.85029477
134,0.0
2,3, 1, 3, 0, 6, 0.00,60.00,Tuesday        
103,2655184.57768003
134,0.0
2,3, 1, 3, 0, 7, 0.00,60.00,Tuesday        
103,2413525.8397937
134,0.0
2,3, 1, 3, 0, 8, 0.00,60.00,Tuesday        
103,6065389.43770666
134,0.0
2,3, 1, 3, 0, 9, 0.00,60.00,Tuesday        
103,3339408.5370512
134,0.0
2,3, 1, 3, 0,10, 0.00,60.00,Tuesday        
103,2767572.19246797
134,0.0
2,3, 1, 3, 0,11, 0.00,60.00,Tuesday        
103,2400389.99889304
134,0.0
2,3, 1, 3, 0,12, 0.00,60.00,Tuesday        
103,2117460.88529712
134,0.0
2,3, 1, 3, 0,13, 0.00,60.00,Tuesday        
103,1987128.95269527
134,0.0
2,3, 1, 3, 0,14, 0.00,60.00,Tuesday        
103,1967470.68398496
134,0.0
2,3, 1, 3, 0,15, 0.00,60.00,Tuesday        
103,2056890.8762953
134,0.0
2,3, 1, 3, 0,16, 0.00,60.00,Tuesday        
103,2237819.76028127
134,0.0
2,3, 1, 3, 0,17, 0.00,60.00,Tuesday        
103,2400117.01690549
134,0.0
2,3, 1, 3, 0,18, 0.00,60.00,Tuesday        
103,2621716.75686396
134,0.0
2,3, 1, 3, 0,19, 0.00,60.00,Tuesday        
103,372700.966466221
134,0.0
2,3, 1, 3, 0,20, 0.00,60.00,Tuesday        
103,1860278.51523824
134,0.0
2,3, 1, 3, 0,21, 0.00,60.00,Tuesday        
103,2428884.5809088
134,0.0
2,3, 1, 3, 0,22, 0.00,60.00,Tuesday        
103,2718444.35704317
134,0.0
2,3, 1, 3, 0,23, 0.00,60.00,Tuesday        
103,3027489.38443243
134,0.0
2,3, 1, 3, 0,24, 0.00,60.00,Tuesday        
103,2954215.40410768
134,0.0
2,4, 1, 4, 0, 1, 0.00,60.00,Wednesday      
103,3003362.44480819
134,0.0
2,4, 1, 4, 0, 2, 0.00,60.00,Wednesday      
103,3018744.53608374
134,0.0
2,4, 1, 4, 0, 3, 0.00,60.00,Wednesday      
103,2904445.17755407
134,0.0
2,4, 1, 4, 0, 4, 0.00,60.00,Wednesday      
103,3002605.32209232
134,0.0
2,4, 1, 4, 0, 5, 0.00,60.00,Wednesday      
103,3226099.67426255
134,0.0
2,4, 1, 4, 0, 6, 0.00,60.00,Wednesday      
103,3345871.35954553
134,0.0
2,4, 1, 4, 0, 7, 0.00,60.00,Wednesday      
103,3096916.00613704
134,0.0
2,4, 1, 4, 0, 8, 0.00,60.00,Wednesday      
103,6310178.2016067
134,0.0
2,4, 1, 4, 0, 9, 0.00,60.00,Wednesday      
103,4049664.49321921
134,0.0
2,4, 1, 4, 0,10, 0.00,60.00,Wednesday      
103,3285668.64807363
134,0.0
2,4, 1, 4, 0,11, 0.00,60.00,Wednesday      
103,3010026.53710494
134,0.0
2,4, 1, 4, 0,12, 0.00,60.00,Wednesday      
103,2938884.97505436
134,0.0
2,4, 1, 4, 0,13, 0.00,60.00,Wednesday      
103,2649600.05678959
134,0.0
2,4, 1, 4, 0,14, 0.00,60.00,Wednesday      
103,2492566.88622937
134,0.0
2,4, 1, 4, 0,15, 0.00,60.00,Wednesday      
103,2462787.86430525
134,0.0
2,4, 1, 4, 0,16, 0.00,60.00,Wednesday      
103,2671531.67199145
134,0.0
2,4, 1, 4, 0,17, 0.00,60.00,Wednesday      
103,3029094.12983313
134,0.0
2,4, 1, 4, 0,18, 0.00,60.00,Wednesday      
103,3260156.61725796
134,0.0
2,4, 1, 4, 0,19, 0.00,60.00,Wednesday      
103,862346.761432795
134,0.0
2,4, 1, 4, 0,20, 0.00,60.00,Wednesday      
103,2384947.90666577
134,0.0
2,4, 1, 4, 0,21, 0.00,60.00,Wednesday      
103,2812896.61324267
134,0.0
2,4, 1, 4, 0,22, 0.00,60.00,Wednesday      
103,3001194.15114759
134,0.0
2,4, 1, 4, 0,23, 0.00,60.00,Wednesday      
103,3371011.48325434
134,0.0
2,4, 1, 4, 0,24, 0.00,60.00,Wednesday      
103,3381803.86582951
134,0.0
2,5, 1, 5, 0, 1, 0.00,60.00,Thursday       
103,3306810.72783596
134,0.0
2,5, 1, 5, 0, 2, 0.00,60.00,Thursday       
103,3130616.95300042
134,0.0
2,5, 1, 5, 0, 3, 0.00,60.00,Thursday       
103,2907539.28858625
134,0.0
2,5, 1, 5, 0, 4, 0.00,60.00,Thursday       
103,2859735.74946046
134,0.0
2,5, 1, 5, 0, 5, 0.00,60.00,Thursday       
103,2891740.09556725
134,0.0
2,5, 1, 5, 0, 6, 0.00,60.00,Thursday       
103,2836567.66578463
134,0.0
2,5, 1, 5, 0, 7, 0.00,60.00,Thursday       
103,2377844.69601966
134,0.0
2,5, 1, 5, 0, 8, 0.00,60.00,Thursday       
103,6207467.25356527
134,0.0
2,5, 1, 5, 0, 9, 0.00,60.00,Thursday       
103,3509309.43813966
134,0.0
2,5, 1, 5, 0,10, 0.00,60.00,Thursday       
103,2952576.61083252
134,0.0
2,5, 1, 5, 0,11, 0.00,60.00,Thursday       
103,2429481.31546564
134,0.0
2,5, 1, 5, 0,12, 0.00,60.00,Thursday       
103,2084638.35717312
134,0.0
2,5, 1, 5, 0,13, 0.00,60.00,Thursday       
103,1957882.80727697
134,0.0
2,5, 1, 5, 0,14, 0.00,60.00,Thursday       
103,1976923.04337145
134,0.0
2,5, 1, 5, 0,15, 0.00,60.00,Thursday       
103,2153375.73468679
134,0.0
2,5, 1, 5, 0,16, 0.00,60.00,Thursday       
103,2450317.57955861
134,0.0
2,5, 1, 5, 0,17, 0.00,60.00,Thursday       
103,3059400.08786309
134,0.0
2,5, 1, 5, 0,18, 0.00,60.00,Thursday       
103,3466252.73528663
134,0.0
2,5, 1, 5, 0,19, 0.00,60.00,Thursday       
103,832740.706629407
134,0.0
2,5, 1, 5, 0,20, 0.00,60.00,Thursday       
103,2213922.95377382
134,0.0
2,5, 1, 5, 0,21, 0.00,60.00,Thursday       
103,2572100.51120423
134,0.0
2,5, 1, 5, 0,22, 0.00,60.00,Thursday       
103,2777451.705409
134,0.0
2,5, 1, 5, 0,23, 0.00,60.00,Thursday       
103,3492025.90633422
134,0.0
2,5, 1, 5, 0,24, 0.00,60.00,Thursday       
103,3513935.33756128
134,0.0
2,6, 1, 6, 0, 1, 0.00,60.00,Friday         
103,3548371.87160435
134,0.0
2,6, 1, 6, 0, 2, 0.00,60.00,Friday         
103,3492630.05559362
134,0.0
2,6, 1, 6, 0, 3, 0.00,60.00,Friday         
103,3471277.5205524
134,0.0
2,6, 1, 6, 0, 4, 0.00,60.00,Friday         
103,3483500.07058665
134,0.0
2,6, 1, 6, 0, 5, 0.00,60.00,Friday         
103,3459518.15259455
134,0.0
2,6, 1, 6, 0, 6, 0.00,60.00,Friday         
103,3432276.33486808
134,0.0
2,6, 1, 6, 0, 7, 0.00,60.00,Friday         
103,2897765.48493787
134,0.0
2,6, 1, 6, 0, 8, 0.00,60.00,Friday         
103,6263175.41957149
134,0.0
2,6, 1, 6, 0, 9, 0.00,60.00,Friday         
103,4035738.23422628
134,0.0
2,6, 1, 6, 0,10, 0.00,60.00,Friday         
103,3312631.01889959
134,0.0
2,6, 1, 6, 0,11, 0.00,60.00,Friday         
103,2831223.66346734
134,0.0
2,6, 1, 6, 0,12, 0.00,60.00,Friday         
103,2477917.04341044
134,0.0
2,6, 1, 6, 0,13, 0.00,60.00,Friday         
103,2264009.75670579
134,0.0
2,6, 1, 6, 0,14, 0.00,60.00,Friday         
103,2187425.74465356
134,0.0
2,6, 1, 6, 0,15, 0.00,60.00,Friday         
103,2546333.38586843
134,0.0
2,6, 1, 6, 0,16, 0.00,60.00,Friday         
103,2846183.39050498
134,0.0
2,6, 1, 6, 0,17, 0.00,60.00,Friday         
103,2825300.45838642
134,0.0
2,6, 1, 6, 0,18, 0.00,60.00,Friday         
103,2973943.96439085
134,0.0
2,6, 1, 6, 0,19, 0.00,60.00,Friday         
103,458236.224344346
134,0.0
2,6, 1, 6, 0,20, 0.00,60.00,Friday         
103,1681201.59969728
134,0.0
2,6, 1, 6, 0,21, 0.00,60.00,Friday         
103,1962526.48020673
134,0.0
2,6, 1, 6, 0,22, 0.00,60.00,Friday         
103,1996219.85236892
134,0.0
2,6, 1, 6, 0,23, 0.00,60.00,Friday         
103,2207651.59461815
134,0.0
2,6, 1, 6, 0,24, 0.00,60.00,Friday         
103,2316578.62043457
134,0.0
2,7, 1, 7, 0, 1, 0.00,60.00,Saturday       
103,2378065.01855138
134,0.0
2,7, 1, 7, 0, 2, 0.00,60.00,Saturday       
103,2427804.74760167
134,0.0
2,7, 1, 7, 0, 3, 0.00,60.00,Saturday       
103,2426356.22220474
134,0.0
2,7, 1, 7, 0, 4, 0.00,60.00,Saturday       
103,2424431.62674212
134,0.0
2,7, 1, 7, 0, 5, 0.00,60.00,Saturday       
103,2570007.69296024
134,0.0
2,7, 1, 7, 0, 6, 0.00,60.00,Saturday       
103,2685308.01046324
134,0.0
2,7, 1, 7, 0, 7, 0.00,60.00,Saturday       
103,2450109.44953162
134,0.0
2,7, 1, 7, 0, 8, 0.00,60.00,Saturday       
103,5826654.23525917
134,0.0
2,7, 1, 7, 0, 9, 0.00,60.00,Saturday       
103,3654831.06147088
134,0.0
2,7, 1, 7, 0,10, 0.00,60.00,Saturday       
103,3037380.712836
134,0.0
2,7, 1, 7, 0,11, 0.00,60.00,Saturday       
103,2678161.44033532
134,0.0
2,7, 1, 7, 0,12, 0.00,60.00,Saturday       
103,2469297.77821427
134,0.0
2,7, 1, 7, 0,13, 0.00,60.00,Saturday       
103,2339194.89858912
134,0.0
2,7, 1, 7, 0,14, 0.00,60.00,Saturday       
103,2278407.34599833
134,0.0
2,7, 1, 7, 0,15, 0.00,60.00,Saturday       
103,2574384.00045642
134,0.0
2,7, 1, 7, 0,16, 0.00,60.00,Saturday       
103,2843011.16948612
134,0.0
2,7, 1, 7, 0,17, 0.00,60.00,Saturday       
103,3091494.46128954
134,0.0
2,7, 1, 7, 0,18, 0.00,60.00,Saturday       
103,3317993.34762841
134,0.0
2,7, 1, 7, 0,19, 0.00,60.00,Saturday       
103,867259.444348889
134,0.0
2,7, 1, 7, 0,20, 0.00,60.00,Saturday       
103,2219737.63051692
134,0.0
2,7, 1, 7, 0,21, 0.00,60.00,Saturday       
103,2579512.30944395
134,0.0
2,7, 1, 7, 0,22, 0.00,60.00,Saturday       
103,2635769.65892783
134,0.0
2,7, 1, 7, 0,23, 0.00,60.00,Saturday       
103,2634151.61263885
134,0.0
2,7, 1, 7, 0,24, 0.00,60.00,Saturday       
103,2645574.18940791
134,0.0
2,8, 1, 8, 0, 1, 0.00,60.00,Sunday         
103,2647358.51434984
134,0.0
2,8, 1, 8, 0, 2, 0.00,60.00,Sunday         
103,2764999.55864527
134,0.0
2,8, 1, 8, 0, 3, 0.00,60.00,Sunday         
103,2968889.251281
134,0.0
2,8, 1, 8, 0, 4, 0.00,60.00,Sunday         
103,2997854.77792702
134,0.0
2,8, 1, 8, 0, 5, 0.00,60.00,Sunday         
103,2918454.20151789
134,0.0
2,8, 1, 8, 0, 6, 0.00,60.00,Sunday         
103,2922190.81993743
134,0.0
2,8, 1, 8, 0, 7, 0.00,60.00,Sunday         
103,2916700.90691888
134,0.0
2,8, 1, 8, 0, 8, 0.00,60.00,Sunday         
103,6163254.39337066
134,0.0
2,8, 1, 8, 0, 9, 0.00,60.00,Sunday         
103,3832982.49785845
134,0.0
2,8, 1, 8, 0,10, 0.00,60.00,Sunday         
103,3214177.27366715
134,0.0
2,8, 1, 8, 0,11, 0.00,60.00,Sunday         
103,3277421.2337171
134,0.0
2,8, 1, 8, 0,12, 0.00,60.00,Sunday         
103,3465275.85043982
134,0.0
2,8, 1, 8, 0,13, 0.00,60.00,Sunday         
103,3494613.80560993
134,0.0
2,8, 1, 8, 0,14, 0.00,60.00,Sunday         
103,3561765.5356509
134,0.0
2,8, 1, 8, 0,15, 0.00,60.00,Sunday         
103,3521231.90147091
134,0.0
2,8, 1, 8, 0,16, 0.00,60.00,Sunday         
103,3480050.4356561
134,0.0
2,8, 1, 8, 0,17, 0.00,60.00,Sunday         
103,3501120.62438195
134,0.0
2,8, 1, 8, 0,18, 0.00,60.00,Sunday         
103,3443098.44383488
134,0.0
2,8, 1, 8, 0,19, 0.00,60.00,Sunday         
103,512622.129460961
134,0.0
2,8, 1, 8, 0,20, 0.00,60.00,Sunday         
103,1875024.29971893
134,0.0
2,8, 1, 8, 0,21, 0.00,60.00,Sunday         
103,2363688.59827059
134,0.0
2,8, 1, 8, 0,22, 0.00,60.00,Sunday         
103,2688234.93328418
134,0.0
2,8, 1, 8, 0,23, 0.00,60.00,Sunday         
103,2881107.31903287
134,0.0
2,8, 1, 8, 0,24, 0.00,60.00,Sunday         
103,3021854.99280889
134,0.0
2,9, 1, 9, 0, 1, 0.00,60.00,Monday         
103,3117980.72783087
134,0.0
2,9, 1, 9, 0, 2, 0.00,60.00,Monday         
103,3126269.10976664
134,0.0
2,9, 1, 9, 0, 3, 0.00,60.00,Monday         
103,3148750.8345978
134,0.0
2,9, 1, 9, 0, 4, 0.00,60.00,Monday         
103,3115919.26958154
134,0.0
2,9, 1, 9, 0, 5, 0.00,60.00,Monday         
103,3220004.5104187
134,0.0
2,9, 1, 9, 0, 6, 0.00,60.00,Monday         
103,3218957.28665683
134,0.0
2,9, 1, 9, 0, 7, 0.00,60.00,Monday         
103,2770219.09894089
134,0.0
2,9, 1, 9, 0, 8, 0.00,60.00,Monday         
103,5861267.88477901
134,0.0
2,9, 1, 9, 0, 9, 0.00,60.00,Monday         
103,3660925.61034287
134,0.0
2,9, 1, 9, 0,10, 0.00,60.00,Monday         
103,3072801.98343984
134,0.0
2,9, 1, 9, 0,11, 0.00,60.00,Monday         
103,2589563.74898495
134,0.0
2,9, 1, 9, 0,12, 0.00,60.00,Monday         
103,2181883.92138419
134,0.0
2,9, 1, 9, 0,13, 0.00,60.00,Monday         
103,1852953.84032017
134,0.0
2,9, 1, 9, 0,14, 0.00,60.00,Monday         
103,1754334.28885892
134,0.0
2,9, 1, 9, 0,15, 0.00,60.00,Monday         
103,1840731.13870536
134,0.0
2,9, 1, 9, 0,16, 0.00,60.00,Monday         
103,2040099.40078257
134,0.0
2,9, 1, 9, 0,17, 0.00,60.00,Monday         
103,2223534.56326845
134,0.0
2,9, 1, 9, 0,18, 0.00,60.00,Monday         
103,2473412.75871409
134,0.0
2,9, 1, 9, 0,19, 0.00,60.00,Monday         
103,180628.128811983
134,0.0
2,9, 1, 9, 0,20, 0.00,60.00,Monday         
103,1324528.78895308
134,0.0
2,9, 1, 9, 0,21, 0.00,60.00,Monday         
103,1771405.0139902
134,0.0
2,9, 1, 9, 0,22, 0.00,60.00,Monday         
103,1875597.37434838
134,0.0
2,9, 1, 9, 0,23, 0.00,60.00,Monday         
103,2325199.61654664
134,0.0
2,9, 1, 9, 0,24, 0.00,60.00,Monday         
103,2286986.01516474
134,0.0
2,10, 1,10, 0, 1, 0.00,60.00,Tuesday        
103,2127767.78638058
134,0.0
2,10, 1,10, 0, 2, 0.00,60.00,Tuesday        
103,1963230.41096572
134,0.0
2,10, 1,10, 0, 3, 0.00,60.00,Tuesday        
103,1876329.34956475
134,0.0
2,10, 1,10, 0, 4, 0.00,60.00,Tuesday        
103,1963227.52833467
134,0.0
2,10, 1,10, 0, 5, 0.00,60.00,Tuesday        
103,2146415.51133071
134,0.0
2,10, 1,10, 0, 6, 0.00,60.00,Tuesday        
103,2166331.72801719
134,0.0
2,10, 1,10, 0, 7, 0.00,60.00,Tuesday        
103,1931705.69997029
134,0.0
2,10, 1,10, 0, 8, 0.00,60.00,Tuesday        
103,5763428.43153622
134,0.0
2,10, 1,10, 0, 9, 0.00,60.00,Tuesday        
103,3133620.98566626
134,0.0
2,10, 1,10, 0,10, 0.00,60.00,Tuesday        
103,2643198.30970528
134,0.0
2,10, 1,10, 0,11, 0.00,60.00,Tuesday        
103,2298367.21703349
134,0.0
2,10, 1,10, 0,12, 0.00,60.00,Tuesday        
103,2063994.84472509
134,0.0
2,10, 1,10, 0,13, 0.00,60.00,Tuesday        
103,2052984.07636578
134,0.0
2,10, 1,10, 0,14, 0.00,60.00,Tuesday        
103,2136877.74418287
134,0.0
2,10, 1,10, 0,15, 0.00,60.00,Tuesday        
103,2261096.52408605
134,0.0
2,10, 1,10, 0,16, 0.00,60.00,Tuesday        
103,2500102.69000753
134,0.0
2,10, 1,10, 0,17, 0.00,60.00,Tuesday        
103,2752541.42179688
134,0.0
2,10, 1,10, 0,18, 0.00,60.00,Tuesday        
103,2901453.83438513
134,0.0
2,10, 1,10, 0,19, 0.00,60.00,Tuesday        
103,460165.443821004
134,0.0
2,10, 1,10, 0,20, 0.00,60.00,Tuesday        
103,1612925.49345407
134,0.0
2,10, 1,10, 0,21, 0.00,60.00,Tuesday        
103,2070183.44764693
134,0.0
2,10, 1,10, 0,22, 0.00,60.00,Tuesday        
103,2279609.02740578
134,0.0
2,10, 1,10, 0,23, 0.00,60.00,Tuesday        
103,2718833.3587501
134,0.0
2,10, 1,10, 0,24, 0.00,60.00,Tuesday        
103,2907018.19923217
134,0.0
2,11, 1,11, 0, 1, 0.00,60.00,Wednesday      
103,2962102.95616338
134,0.0
2,11, 1,11, 0, 2, 0.00,60.00,Wednesday      
103,2951831.23962591
134,0.0
2,11, 1,11, 0, 3, 0.00,60.00,Wednesday      
103,2888925.51998331
134,0.0
2,11, 1,11, 0, 4, 0.00,60.00,Wednesday      
103,2822197.53444544
134,0.0
2,11, 1,11, 0, 5, 0.00,60.00,Wednesday      
103,2717756.33165016
134,0.0
2,11, 1,11, 0, 6, 0.00,60.00,Wednesday      
103,2618000.27969001
134,0.0
2,11, 1,11, 0, 7, 0.00,60.00,Wednesday      
103,2301641.96645435
134,0.0
2,11, 1,11, 0, 8, 0.00,60.00,Wednesday      
103,6176171.13904371
134,0.0
2,11, 1,11, 0, 9, 0.00,60.00,Wednesday      
103,3733057.35696868
134,0.0
2,11, 1,11, 0,10, 0.00,60.00,Wednesday      
103,3186604.95447465
134,0.0
2,11, 1,11, 0,11, 0.00,60.00,Wednesday      
103,2982322.60404037
134,0.0
2,11, 1,11, 0,12, 0.00,60.00,Wednesday      
103,2969790.41584554
134,0.0
2,11, 1,11, 0,13, 0.00,60.00,Wednesday      
103,2685301.65856299
134,0.0
2,11, 1,11, 0,14, 0.00,60.00,Wednesday      
103,2495900.60582194
134,0.0
2,11, 1,11, 0,15, 0.00,60.00,Wednesday      
103,2544141.65437532
134,0.0
2,11, 1,11, 0,16, 0.00,60.00,Wednesday      
103,2690678.7002946
134,0.0
2,11, 1,11, 0,17, 0.00,60.00,Wednesday      
103,3036887.02486968
134,0.0
2,11, 1,11, 0,18, 0.00,60.00,Wednesday      
103,3274936.17549137
134,0.0
2,11, 1,11, 0,19, 0.00,60.00,Wednesday      
103,744474.66884126
134,0.0
2,11, 1,11, 0,20, 0.00,60.00,Wednesday      
103,2150797.92197342
134,0.0
2,11, 1,11, 0,21, 0.00,60.00,Wednesday      
103,2589589.03994357
134,0.0
2,11, 1,11, 0,22, 0.00,60.00,Wednesday      
103,2794444.54700935
134,0.0
2,11, 1,11, 0,23, 0.00,60.00,Wednesday      
103,3025516.78912079
134,0.0
2,11, 1,11, 0,24, 0.00,60.00,Wednesday      
103,3312028.83382069
134,0.0
2,12, 1,12, 0, 1, 0.00,60.00,Thursday       
103,3362198.0623358
134,0.0
2,12, 1,12, 0, 2, 0.00,60.00,Thursday       
103,3240421.44363172
134,0.0
2,12, 1,12, 0, 3, 0.00,60.00,Thursday       
103,3190062.12570268
134,0.0
2,12, 1,12, 0, 4, 0.00,60.00,Thursday       
103,3212403.94038102
134,0.0
2,12, 1,12, 0, 5, 0.00,60.00,Thursday       
103,3332211.13340057
134,0.0
2,12, 1,12, 0, 6, 0.00,60.00,Thursday       
103,3258323.92563837
134,0.0
2,12, 1,12, 0, 7, 0.00,60.00,Thursday       
103,3164973.36800617
134,0.0
2,12, 1,12, 0, 8, 0.00,60.00,Thursday       
103,6580849.83838753
134,0.0
2,12, 1,12, 0, 9, 0.00,60.00,Thursday       
103,4342043.72514904
134,0.0
2,12, 1,12, 0,10, 0.00,60.00,Thursday       
103,3781031.96199829
134,0.0
2,12, 1,12, 0,11, 0.00,60.00,Thursday       
103,3312182.91159412
134,0.0
2,12, 1,12, 0,12, 0.00,60.00,Thursday       
103,2825875.28369591
134,0.0
2,12, 1,12, 0,13, 0.00,60.00,Thursday       
103,2411352.44766114
134,0.0
2,12, 1,12, 0,14, 0.00,60.00,Thursday       
103,2270244.10455757
134,0.0
2,12, 1,12, 0,15, 0.00,60.00,Thursday       
103,2395969.3885385
134,0.0
2,12, 1,12, 0,16, 0.00,60.00,Thursday       
103,2607225.78221186
134,0.0
2,12, 1,12, 0,17, 0.00,60.00,Thursday       
103,2897634.85283181
134,0.0
2,12, 1,12, 0,18, 0.00,60.00,Thursday       
103,3140286.87841892
134,0.0
2,12, 1,12, 0,19, 0.00,60.00,Thursday       
103,716429.275065048
134,0.0
2,12, 1,12, 0,20, 0.00,60.00,Thursday       
103,2041432.19481387
134,0.0
2,12, 1,12, 0,21, 0.00,60.00,Thursday       
103,2451803.6543942
134,0.0
2,12, 1,12, 0,22, 0.00,60.00,Thursday       
103,2719170.67731807
134,0.0
2,12, 1,12, 0,23, 0.00,60.00,Thursday       
103,3137274.98809847
134,0.0
2,12, 1,12, 0,24, 0.00,60.00,Thursday       
103,3267432.36754594
134,0.0
2,13, 1,13, 0, 1, 0.00,60.00,Friday         
103,3431200.34454437
134,0.0
2,13, 1,13, 0, 2, 0.00,60.00,Friday         
103,3591414.29208249
134,0.0
2,13, 1,13, 0, 3, 0.00,60.00,Friday         
103,3672234.87788263
134,0.0
2,13, 1,13, 0, 4, 0.00,60.00,Friday         
103,3749521.32434225
134,0.0
2,13, 1,13, 0, 5, 0.00,60.00,Friday         
103,3787847.11423625
134,0.0
2,13, 1,13, 0, 6, 0.00,60.00,Friday         
103,3836021.16863819
134,0.0
2,13, 1,13, 0, 7, 0.00,60.00,Friday         
103,3717776.79063504
134,0.0
2,13, 1,13, 0, 8, 0.00,60.00,Friday         
103,7001813.15177605
134,0.0
2,13, 1,13, 0, 9, 0.00,60.00,Friday         
103,4621231.90792602
134,0.0
2,13, 1,13, 0,10, 0.00,60.00,Friday         
103,3926361.38727587
134,0.0
2,13, 1,13, 0,11, 0.00,60.00,Friday         
103,3488240.65437566
134,0.0
2,13, 1,13, 0,12, 0.00,60.00,Friday         
103,3153909.2756513
134,0.0
2,13, 1,13, 0,13, 0.00,60.00,Friday         
103,2915956.64405313
134,0.0
2,13, 1,13, 0,14, 0.00,60.00,Friday         
103,2764812.09084883
134,0.0
2,13, 1,13, 0,15, 0.00,60.00,Friday         
103,2753332.29959938
134,0.0
2,13, 1,13, 0,16, 0.00,60.00,Friday         
103,2914814.50644168
134,0.0
2,13, 1,13, 0,17, 0.00,60.00,Friday         
103,3212332.9101418
134,0.0
2,13, 1,13, 0,18, 0.00,60.00,Friday         
103,3462900.81567411
134,0.0
2,13, 1,13, 0,19, 0.00,60.00,Friday         
103,1110744.64634993
134,0.0
2,13, 1,13, 0,20, 0.00,60.00,Friday         
103,2695174.60201794
134,0.0
2,13, 1,13, 0,21, 0.00,60.00,Friday         
103,3173548.65192564
134,0.0
2,13, 1,13, 0,22, 0.00,60.00,Friday         
103,3457003.16689035
134,0.0
2,13, 1,13, 0,23, 0.00,60.00,Friday         
103,3719261.12784177
134,0.0
2,13, 1,13, 0,24, 0.00,60.00,Friday         
103,3797538.80367459
134,0.0
2,14, 1,14, 0, 1, 0.00,60.00,Saturday       
103,3906118.17936562
134,0.0
2,14, 1,14, 0, 2, 0.00,60.00,Saturday       
103,3875475.81000157
134,0.0
2,14, 1,14, 0, 3, 0.00,60.00,Saturday       
103,3938737.15141071
134,0.0
2,14, 1,14, 0, 4, 0.00,60.00,Saturday       
103,3812018.08827903
134,0.0
2,14, 1,14, 0, 5, 0.00,60.00,Saturday       
103,3521511.36350646
134,0.0
2,14, 1,14, 0, 6, 0.00,60.00,Saturday       
103,3470074.26021221
134,0.0
2,14, 1,14, 0, 7, 0.00,60.00,Saturday       
103,3694370.54393089
134,0.0
2,14, 1,14, 0, 8, 0.00,60.00,Saturday       
103,7232340.58328112
134,0.0
2,14, 1,14, 0, 9, 0.00,60.00,Saturday       
103,4720423.22200406
134,0.0
2,14, 1,14, 0,10, 0.00,60.00,Saturday       
103,3787470.94235561
134,0.0
2,14, 1,14, 0,11, 0.00,60.00,Saturday       
103,3295391.14490078
134,0.0
2,14, 1,14, 0,12, 0.00,60.00,Saturday       
103,3025111.43049877
134,0.0
2,14, 1,14, 0,13, 0.00,60.00,Saturday       
103,2873450.97002494
134,0.0
2,14, 1,14, 0,14, 0.00,60.00,Saturday       
103,2845428.37940822
134,0.0
2,14, 1,14, 0,15, 0.00,60.00,Saturday       
103,2890220.89874535
134,0.0
2,14, 1,14, 0,16, 0.00,60.00,Saturday       
103,3101958.68744073
134,0.0
2,14, 1,14, 0,17, 0.00,60.00,Saturday       
103,3468731.75108787
134,0.0
2,14, 1,14, 0,18, 0.00,60.00,Saturday       
103,3730962.07252367
134,0.0
2,14, 1,14, 0,19, 0.00,60.00,Saturday       
103,1633094.54336248
134,0.0
2,14, 1,14, 0,20, 0.00,60.00,Saturday       
103,3308462.27324286
134,0.0
2,14, 1,14, 0,21, 0.00,60.00,Saturday       
103,3460079.97661341
134,0.0
2,14, 1,14, 0,22, 0.00,60.00,Saturday       
103,3526642.93626539
134,0.0
2,14, 1,14, 0,23, 0.00,60.00,Saturday       
103,3786665.29563601
134,0.0
2,14, 1,14, 0,24, 0.00,60.00,Saturday       
103,3892249.95625448
134,0.0
2,15, 1,15, 0, 1, 0.00,60.00,Sunday         
103,3820466.78649892
134,0.0
2,15, 1,15, 0, 2, 0.00,60.00,Sunday         
103,3793764.41475886
134,0.0
2,15, 1,15, 0, 3, 0.00,60.00,Sunday         
103,3867813.28025748
134,0.0
2,15, 1,15, 0, 4, 0.00,60.00,Sunday         
103,3756087.41157294
134,0.0
2,15, 1,15, 0, 5, 0.00,60.00,Sunday         
103,3777997.03549782
134,0.0
2,15, 1,15, 0, 6, 0.00,60.00,Sunday         
103,3927424.72345111
134,0.0
2,15, 1,15, 0, 7, 0.00,60.00,Sunday         
103,3994859.34945239
134,0.0
2,15, 1,15, 0, 8, 0.00,60.00,Sunday         
103,7431734.52227949
134,0.0
2,15, 1,15, 0, 9, 0.00,60.00,Sunday         
103,5171123.04130272
134,0.0
2,15, 1,15, 0,10, 0.00,60.00,Sunday         
103,4482694.45974052
134,0.0
2,15, 1,15, 0,11, 0.00,60.00,Sunday         
103,3982653.40733482
134,0.0
2,15, 1,15, 0,12, 0.00,60.00,Sunday         
103,3628300.57105351
134,0.0
2,15, 1,15, 0,13, 0.00,60.00,Sunday         
103,3363664.20571555
134,0.0
2,15, 1,15, 0,14, 0.00,60.00,Sunday         
103,3242711.65107209
134,0.0
2,15, 1,15, 0,15, 0.00,60.00,Sunday         
103,3175966.78143553
134,0.0
2,15, 1,15, 0,16, 0.00,60.00,Sunday         
103,3294367.63646523
134,0.0
2,15, 1,15, 0,17, 0.00,60.00,Sunday         
103,3618545.41519863
134,0.0
2,15, 1,15, 0,18, 0.00,60.00,Sunday         
103,3844510.92323629
134,0.0
2,15, 1,15, 0,19, 0.00,60.00,Sunday         
103,1245008.89715357
134,0.0
2,15, 1,15, 0,20, 0.00,60.00,Sunday         
103,2952335.07052765
134,0.0
2,15, 1,15, 0,21, 0.00,60.00,Sunday         
103,3476510.89979724
134,0.0
2,15, 1,15, 0,22, 0.00,60.00,Sunday         
103,3685148.9550488
134,0.0
2,15, 1,15, 0,23, 0.00,60.00,Sunday         
103,3645665.69255445
134,0.0
2,15, 1,15, 0,24, 0.00,60.00,Sunday         
103,3729519.28310676
134,0.0
2,16, 1,16, 0, 1, 0.00,60.00,Monday         
103,3860842.39564329
134,0.0
2,16, 1,16, 0, 2, 0.00,60.00,Monday         
103,3838172.16180653
134,0.0
2,16, 1,16, 0, 3, 0.00,60.00,Monday         
103,3959318.25552314
134,0.0
2,16, 1,16, 0, 4, 0.00,60.00,Monday         
103,4051868.46889367
134,0.0
2,16, 1,16, 0, 5, 0.00,60.00,Monday         
103,3950881.23231635
134,0.0
2,16, 1,16, 0, 6, 0.00,60.00,Monday         
103,3914091.298618
134,0.0
2,16, 1,16, 0, 7, 0.00,60.00,Monday         
103,3779358.85681243
134,0.0
2,16, 1,16, 0, 8, 0.00,60.00,Monday         
103,7144325.66414787
134,0.0
2,16, 1,16, 0, 9, 0.00,60.00,Monday         
103,4761978.59871458
134,0.0
2,16, 1,16, 0,10, 0.00,60.00,Monday         
103,3967587.36820313
134,0.0
2,16, 1,16, 0,11, 0.00,60.00,Monday         
103,3420145.75095139
134,0.0
2,16, 1,16, 0,12, 0.00,60.00,Monday         
103,3042789.70984238
134,0.0
2,16, 1,16, 0,13, 0.00,60.00,Monday         
103,2667551.77609588
134,0.0
2,16, 1,16, 0,14, 0.00,60.00,Monday         
103,2394178.94222434
134,0.0
2,16, 1,16, 0,15, 0.00,60.00,Monday         
103,2371749.10146281
134,0.0
2,16, 1,16, 0,16, 0.00,60.00,Monday         
103,2571499.69299463
134,0.0
2,16, 1,16, 0,17, 0.00,60.00,Monday         
103,2955840.21815779
134,0.0
2,16, 1,16, 0,18, 0.00,60.00,Monday         
103,3334650.01235228
134,0.0
2,16, 1,16, 0,19, 0.00,60.00,Monday         
103,1003208.18180277
134,0.0
2,16, 1,16, 0,20, 0.00,60.00,Monday         
103,2539942.87011995
134,0.0
2,16, 1,16, 0,21, 0.00,60.00,Monday         
103,2900048.49765742
134,0.0
2,16, 1,16, 0,22, 0.00,60.00,Monday         
103,2958092.28337253
134,0.0
2,16, 1,16, 0,23, 0.00,60.00,Monday         
103,3235904.8681934
134,0.0
2,16, 1,16, 0,24, 0.00,60.00,Monday         
103,3142634.88093807
134,0.0
2,17, 1,17, 0, 1, 0.00,60.00,Tuesday        
103,3082841.67075184
134,0.0
2,17, 1,17, 0, 2, 0.00,60.00,Tuesday        
103,3068825.89531568
134,0.0
2,17, 1,17, 0, 3, 0.00,60.00,Tuesday        
103,2932905.29223347
134,0.0
2,17, 1,17, 0, 4, 0.00,60.00,Tuesday        
103,2792527.66587951
134,0.0
2,17, 1,17, 0, 5, 0.00,60.00,Tuesday        
103,2781980.85193165
134,0.0
2,17, 1,17, 0, 6, 0.00,60.00,Tuesday        
103,2820043.9574936
134,0.0
2,17, 1,17, 0, 7, 0.00,60.00,Tuesday        
103,2541651.68467982
134,0.0
2,17, 1,17, 0, 8, 0.00,60.00,Tuesday        
103,5778697.93362868
134,0.0
2,17, 1,17, 0, 9, 0.00,60.00,Tuesday        
103,3521272.92674139
134,0.0
2,17, 1,17, 0,10, 0.00,60.00,Tuesday        
103,3157554.1795215
134,0.0
2,17, 1,17, 0,11, 0.00,60.00,Tuesday        
103,3086360.0288773
134,0.0
2,17, 1,17, 0,12, 0.00,60.00,Tuesday        
103,3001002.03135305
134,0.0