Program Version,EnergyPlus, Version 8.8, YMD=2015.03.22 20:57
1,5,Environment Title[],Latitude[deg],Longitude[deg],Time Zone[],Elevation[m]
2,6,Day of Simulation[],Month[],Day of Month[],DST Indicator[1=yes 0=no],Hour[],StartMinute[],EndMinute[],DayType
3,3,Cumulative Day of Simulation[],Month[],Day of Month[],DST Indicator[1=yes 0=no],DayType  ! When Daily Meters Requested
4,2,Cumulative Days of Simulation[],Month[]  ! When Monthly Meters Requested
5,1,Cumulative Days of Simulation[] ! When Run Period Meters Requested
349,1,DistrictHeating:HVAC [J] !Hourly
380,1,DistrictCooling:HVAC [J] !Hourly
372,9,DistrictCooling:Facility [J] !Monthly  [Value,Min,Day,Hour,Minute,Max,Day,Hour,Minute]
106,9,DistrictHeating:Facility [J] !Monthly  [Value,Min,Day,Hour,Minute,Max,Day,Hour,Minute]
44,9,InteriorLights:Electricity [J] !Monthly  [Value,Min,Day,Hour,Minute,Max,Day,Hour,Minute]
971,9,Carbon Equivalent:Facility [kg] !Monthly  [Value,Min,Day,Hour,Minute,Max,Day,Hour,Minute]
End of Data Dictionary
1,ANNUAL,  45.53,-122.95,  -8.00,  62.00
2,1, 1, 1, 0, 1, 0.00,60.00,Sunday         
349,1978880.99839856
380,0.0
2,1, 1, 1, 0, 2, 0.00,60.00,Sunday         
349,2070148.75441384
380,0.0
2,1, 1, 1, 0, 3, 0.00,60.00,Sunday         
349,2061093.48047032
380,0.0
2,1, 1, 1, 0, 4, 0.00,60.00,Sunday         
349,2081863.68610868
380,0.0
2,1, 1, 1, 0, 5, 0.00,60.00,Sunday         
349,2024355.70108391
380,0.0
2,1, 1, 1, 0, 6, 0.00,60.00,Sunday         
349,2155109.82340334
380,0.0
2,1, 1, 1, 0, 7, 0.00,60.00,Sunday         
349,2238915.28118096
380,0.0
2,1, 1, 1, 0, 8, 0.00,60.00,Sunday         
349,5671476.65900419
380,0.0
2,1, 1, 1, 0, 9, 0.00,60.00,Sunday         
349,2932303.25711886
380,0.0
2,1, 1, 1, 0,10, 0.00,60.00,Sunday         
349,2778330.4510896
380,0.0
2,1, 1, 1, 0,11, 0.00,60.00,Sunday         
349,2778057.81823569
380,0.0
2,1, 1, 1, 0,12, 0.00,60.00,Sunday         
349,2446384.78530012
380,0.0
2,1, 1, 1, 0,13, 0.00,60.00,Sunday         
349,2537454.28926987
380,0.0
2,1, 1, 1, 0,14, 0.00,60.00,Sunday         
349,2509089.16384889
380,0.0
2,1, 1, 1, 0,15, 0.00,60.00,Sunday         
349,2249512.6418325
380,0.0
2,1, 1, 1, 0,16, 0.00,60.00,Sunday         
349,2356849.65353471
380,0.0
2,1, 1, 1, 0,17, 0.00,60.00,Sunday         
349,2375530.74064807
380,0.0
2,1, 1, 1, 0,18, 0.00,60.00,Sunday         
349,2356163.51809392
380,0.0
2,1, 1, 1, 0,19, 0.00,60.00,Sunday         
349,145747.686626139
380,0.0
2,1, 1, 1, 0,20, 0.00,60.00,Sunday         
349,1080512.86541478
380,0.0
2,1, 1, 1, 0,21, 0.00,60.00,Sunday         
349,1607004.7783383
380,0.0
2,1, 1, 1, 0,22, 0.00,60.00,Sunday         
349,1826195.09210681
380,0.0
2,1, 1, 1, 0,23, 0.00,60.00,Sunday         
349,1799077.0078805
380,0.0
2,1, 1, 1, 0,24, 0.00,60.00,Sunday         
349,1786491.48970607
380,0.0
2,2, 1, 2, 0, 1, 0.00,60.00,Monday         
349,1829312.10555083
380,0.0
2,2, 1, 2, 0, 2, 0.00,60.00,Monday         
349,1910130.49666536
380,0.0
2,2, 1, 2, 0, 3, 0.00,60.00,Monday         
349,1955857.85852941
380,0.0
2,2, 1, 2, 0, 4, 0.00,60.00,Monday         
349,1897031.80887065
380,0.0
2,2, 1, 2, 0, 5, 0.00,60.00,Monday         
349,1749825.2101713
380,0.0
2,2, 1, 2, 0, 6, 0.00,60.00,Monday         
349,1541106.20251099
380,0.0
2,2, 1, 2, 0, 7, 0.00,60.00,Monday         
349,647494.745369671
380,0.0
2,2, 1, 2, 0, 8, 0.00,60.00,Monday         
349,2905653.79018028
380,0.0
2,2, 1, 2, 0, 9, 0.00,60.00,Monday         
349,9376.7512816514
380,0.0
2,2, 1, 2, 0,10, 0.00,60.00,Monday         
349,0.0
380,0.0
2,2, 1, 2, 0,11, 0.00,60.00,Monday         
349,0.0
380,0.0
2,2, 1, 2, 0,12, 0.00,60.00,Monday         
349,0.0
380,0.0
2,2, 1, 2, 0,13, 0.00,60.00,Monday         
349,0.0
380,0.0
2,2, 1, 2, 0,14, 0.00,60.00,Monday         
349,0.0
380,0.0
2,2, 1, 2, 0,15, 0.00,60.00,Monday         
349,0.0
380,0.0
2,2, 1, 2, 0,16, 0.00,60.00,Monday         
349,0.0
380,0.0
2,2, 1, 2, 0,17, 0.00,60.00,Monday         
349,0.0
380,0.0
2,2, 1, 2, 0,18, 0.00,60.00,Monday         
349,14451.7531701566
380,0.0
2,2, 1, 2, 0,19, 0.00,60.00,Monday         
349,0.0
380,0.0
2,2, 1, 2, 0,20, 0.00,60.00,Monday         
349,631339.886316258
380,0.0
2,2, 1, 2, 0,21, 0.00,60.00,Monday         
349,1593226.01524354
380,0.0
2,2, 1, 2, 0,22, 0.00,60.00,Monday         
349,2082537.06389277
380,0.0
2,2, 1, 2, 0,23, 0.00,60.00,Monday         
349,2403046.06924107
380,0.0
2,2, 1, 2, 0,24, 0.00,60.00,Monday         
349,2604294.01077973
380,0.0
2,3, 1, 3, 0, 1, 0.00,60.00,Tuesday        
349,2870482.40626174
380,0.0
2,3, 1, 3, 0, 2, 0.00,60.00,Tuesday        
349,3029915.06962914
380,0.0
2,3, 1, 3, 0, 3, 0.00,60.00,Tuesday        
349,3141099.94184868
380,0.0
2,3, 1, 3, 0, 4, 0.00,60.00,Tuesday        
349,3312586.45335981
380,0.0
2,3, 1, 3, 0, 5, 0.00,60.00,Tuesday        
349,3179854.74730757
380,0.0
2,3, 1, 3, 0, 6, 0.00,60.00,Tuesday        
349,2681750.73199445
380,0.0
2,3, 1, 3, 0, 7, 0.00,60.00,Tuesday        
349,1481062.930346
380,0.0
2,3, 1, 3, 0, 8, 0.00,60.00,Tuesday        
349,3561055.4688619
380,0.0
2,3, 1, 3, 0, 9, 0.00,60.00,Tuesday        
349,434363.409549662
380,0.0
2,3, 1, 3, 0,10, 0.00,60.00,Tuesday        
349,12819.5248686138
380,0.0
2,3, 1, 3, 0,11, 0.00,60.00,Tuesday        
349,0.0
380,0.0
2,3, 1, 3, 0,12, 0.00,60.00,Tuesday        
349,0.0
380,0.0
2,3, 1, 3, 0,13, 0.00,60.00,Tuesday        
349,0.0
380,0.0
2,3, 1, 3, 0,14, 0.00,60.00,Tuesday        
349,0.0
380,0.0
2,3, 1, 3, 0,15, 0.00,60.00,Tuesday        
349,0.0
380,0.0
2,3, 1, 3, 0,16, 0.00,60.00,Tuesday        
349,0.0
380,0.0
2,3, 1, 3, 0,17, 0.00,60.00,Tuesday        
349,0.0
380,0.0
2,3, 1, 3, 0,18, 0.00,60.00,Tuesday        
349,0.0
380,0.0
2,3, 1, 3, 0,19, 0.00,60.00,Tuesday        
349,0.0
380,0.0
2,3, 1, 3, 0,20, 0.00,60.00,Tuesday        
349,278713.680810965
380,0.0
2,3, 1, 3, 0,21, 0.00,60.00,Tuesday        
349,1192099.33779803
380,0.0
2,3, 1, 3, 0,22, 0.00,60.00,Tuesday        
349,1836706.40238774
380,0.0
2,3, 1, 3, 0,23, 0.00,60.00,Tuesday        
349,2342392.19643693
380,0.0
2,3, 1, 3, 0,24, 0.00,60.00,Tuesday        
349,2608280.48581227
380,0.0
2,4, 1, 4, 0, 1, 0.00,60.00,Wednesday      
349,2800263.68163922
380,0.0
2,4, 1, 4, 0, 2, 0.00,60.00,Wednesday      
349,2854179.91673108
380,0.0
2,4, 1, 4, 0, 3, 0.00,60.00,Wednesday      
349,2879472.99297995
380,0.0
2,4, 1, 4, 0, 4, 0.00,60.00,Wednesday      
349,2979610.7137819
380,0.0
2,4, 1, 4, 0, 5, 0.00,60.00,Wednesday      
349,2664479.98921371
380,0.0
2,4, 1, 4, 0, 6, 0.00,60.00,Wednesday      
349,2078524.12643755
380,0.0
2,4, 1, 4, 0, 7, 0.00,60.00,Wednesday      
349,1200100.31204007
380,0.0
2,4, 1, 4, 0, 8, 0.00,60.00,Wednesday      
349,3420162.47008424
380,0.0
2,4, 1, 4, 0, 9, 0.00,60.00,Wednesday      
349,246179.04453346
380,0.0
2,4, 1, 4, 0,10, 0.00,60.00,Wednesday      
349,0.0
380,0.0
2,4, 1, 4, 0,11, 0.00,60.00,Wednesday      
349,0.0
380,0.0
2,4, 1, 4, 0,12, 0.00,60.00,Wednesday      
349,0.0
380,0.0
2,4, 1, 4, 0,13, 0.00,60.00,Wednesday      
349,0.0
380,0.0
2,4, 1, 4, 0,14, 0.00,60.00,Wednesday      
349,0.0
380,0.0
2,4, 1, 4, 0,15, 0.00,60.00,Wednesday      
349,0.0
380,0.0
2,4, 1, 4, 0,16, 0.00,60.00,Wednesday      
349,0.0
380,0.0
2,4, 1, 4, 0,17, 0.00,60.00,Wednesday      
349,0.0
380,0.0
2,4, 1, 4, 0,18, 0.00,60.00,Wednesday      
349,0.0
380,0.0
2,4, 1, 4, 0,19, 0.00,60.00,Wednesday      
349,0.0
380,0.0
2,4, 1, 4, 0,20, 0.00,60.00,Wednesday      
349,643277.338997314
380,0.0
2,4, 1, 4, 0,21, 0.00,60.00,Wednesday      
349,1589089.03688424
380,0.0
2,4, 1, 4, 0,22, 0.00,60.00,Wednesday      
349,1994322.99557739
380,0.0
2,4, 1, 4, 0,23, 0.00,60.00,Wednesday      
349,2263793.19171756
380,0.0
2,4, 1, 4, 0,24, 0.00,60.00,Wednesday      
349,2320917.82031717
380,0.0
2,5, 1, 5, 0, 1, 0.00,60.00,Thursday       
349,2359363.38435199
380,0.0
2,5, 1, 5, 0, 2, 0.00,60.00,Thursday       
349,2378191.604989
380,0.0
2,5, 1, 5, 0, 3, 0.00,60.00,Thursday       
349,2301219.33273463
380,0.0
2,5, 1, 5, 0, 4, 0.00,60.00,Thursday       
349,2271641.6932046
380,0.0
2,5, 1, 5, 0, 5, 0.00,60.00,Thursday       
349,2239688.0512705
380,0.0
2,5, 1, 5, 0, 6, 0.00,60.00,Thursday       
349,1926375.87385195
380,0.0
2,5, 1, 5, 0, 7, 0.00,60.00,Thursday       
349,943903.343703092
380,0.0
2,5, 1, 5, 0, 8, 0.00,60.00,Thursday       
349,3259407.82903739
380,0.0
2,5, 1, 5, 0, 9, 0.00,60.00,Thursday       
349,164567.436933191
380,0.0
2,5, 1, 5, 0,10, 0.00,60.00,Thursday       
349,0.0
380,0.0
2,5, 1, 5, 0,11, 0.00,60.00,Thursday       
349,0.0
380,0.0
2,5, 1, 5, 0,12, 0.00,60.00,Thursday       
349,0.0
380,0.0
2,5, 1, 5, 0,13, 0.00,60.00,Thursday       
349,0.0
380,0.0
2,5, 1, 5, 0,14, 0.00,60.00,Thursday       
349,0.0
380,0.0
2,5, 1, 5, 0,15, 0.00,60.00,Thursday       
349,0.0
380,0.0
2,5, 1, 5, 0,16, 0.00,60.00,Thursday       
349,0.0
380,0.0
2,5, 1, 5, 0,17, 0.00,60.00,Thursday       
349,0.0
380,0.0
2,5, 1, 5, 0,18, 0.00,60.00,Thursday       
349,0.0
380,0.0
2,5, 1, 5, 0,19, 0.00,60.00,Thursday       
349,0.0
380,0.0
2,5, 1, 5, 0,20, 0.00,60.00,Thursday       
349,527750.188847544
380,0.0
2,5, 1, 5, 0,21, 0.00,60.00,Thursday       
349,1325805.63517162
380,0.0
2,5, 1, 5, 0,22, 0.00,60.00,Thursday       
349,1578205.48334762
380,0.0
2,5, 1, 5, 0,23, 0.00,60.00,Thursday       
349,1596835.22437762
380,0.0
2,5, 1, 5, 0,24, 0.00,60.00,Thursday       
349,1654380.49561361
380,0.0
2,6, 1, 6, 0, 1, 0.00,60.00,Friday         
349,1664094.29977773
380,0.0
2,6, 1, 6, 0, 2, 0.00,60.00,Friday         
349,1674982.5792255
380,0.0
2,6, 1, 6, 0, 3, 0.00,60.00,Friday         
349,1730745.5365554
380,0.0
2,6, 1, 6, 0, 4, 0.00,60.00,Friday         
349,1747458.78248599
380,0.0
2,6, 1, 6, 0, 5, 0.00,60.00,Friday         
349,1669014.59082034
380,0.0
2,6, 1, 6, 0, 6, 0.00,60.00,Friday         
349,1391230.39301352
380,0.0
2,6, 1, 6, 0, 7, 0.00,60.00,Friday         
349,475988.625319084
380,0.0
2,6, 1, 6, 0, 8, 0.00,60.00,Friday         
349,2853004.27451579
380,0.0
2,6, 1, 6, 0, 9, 0.00,60.00,Friday         
349,14464.6009783141
380,0.0
2,6, 1, 6, 0,10, 0.00,60.00,Friday         
349,0.0
380,0.0
2,6, 1, 6, 0,11, 0.00,60.00,Friday         
349,0.0
380,0.0
2,6, 1, 6, 0,12, 0.00,60.00,Friday         
349,0.0
380,0.0
2,6, 1, 6, 0,13, 0.00,60.00,Friday         
349,0.0
380,0.0
2,6, 1, 6, 0,14, 0.00,60.00,Friday         
349,0.0
380,0.0
2,6, 1, 6, 0,15, 0.00,60.00,Friday         
349,0.0
380,0.0
2,6, 1, 6, 0,16, 0.00,60.00,Friday         
349,0.0
380,0.0
2,6, 1, 6, 0,17, 0.00,60.00,Friday         
349,0.0
380,0.0
2,6, 1, 6, 0,18, 0.00,60.00,Friday         
349,0.0
380,0.0
2,6, 1, 6, 0,19, 0.00,60.00,Friday         
349,0.0
380,0.0
2,6, 1, 6, 0,20, 0.00,60.00,Friday         
349,0.0
380,0.0
2,6, 1, 6, 0,21, 0.00,60.00,Friday         
349,0.0
380,0.0
2,6, 1, 6, 0,22, 0.00,60.00,Friday         
349,39359.3559407226
380,0.0
2,6, 1, 6, 0,23, 0.00,60.00,Friday         
349,421150.759451708
380,0.0
2,6, 1, 6, 0,24, 0.00,60.00,Friday         
349,598305.455578216
380,0.0
2,7, 1, 7, 0, 1, 0.00,60.00,Saturday       
349,699247.585817451
380,0.0
2,7, 1, 7, 0, 2, 0.00,60.00,Saturday       
349,649088.264252726
380,0.0
2,7, 1, 7, 0, 3, 0.00,60.00,Saturday       
349,513485.579137131
380,0.0
2,7, 1, 7, 0, 4, 0.00,60.00,Saturday       
349,490175.872092657
380,0.0
2,7, 1, 7, 0, 5, 0.00,60.00,Saturday       
349,509161.2690965
380,0.0
2,7, 1, 7, 0, 6, 0.00,60.00,Saturday       
349,464792.596784046
380,0.0
2,7, 1, 7, 0, 7, 0.00,60.00,Saturday       
349,221186.249027654
380,0.0
2,7, 1, 7, 0, 8, 0.00,60.00,Saturday       
349,3656064.92164817
380,0.0
2,7, 1, 7, 0, 9, 0.00,60.00,Saturday       
349,900898.310334221
380,0.0
2,7, 1, 7, 0,10, 0.00,60.00,Saturday       
349,232853.071505352
380,0.0
2,7, 1, 7, 0,11, 0.00,60.00,Saturday       
349,0.0
380,0.0
2,7, 1, 7, 0,12, 0.00,60.00,Saturday       
349,0.0
380,0.0
2,7, 1, 7, 0,13, 0.00,60.00,Saturday       
349,0.0
380,0.0
2,7, 1, 7, 0,14, 0.00,60.00,Saturday       
349,62565.2874553609
380,0.0
2,7, 1, 7, 0,15, 0.00,60.00,Saturday       
349,0.0
380,0.0
2,7, 1, 7, 0,16, 0.00,60.00,Saturday       
349,0.0
380,0.0
2,7, 1, 7, 0,17, 0.00,60.00,Saturday       
349,266076.636246765
380,0.0
2,7, 1, 7, 0,18, 0.00,60.00,Saturday       
349,938186.618373708
380,0.0
2,7, 1, 7, 0,19, 0.00,60.00,Saturday       
349,0.0
380,0.0
2,7, 1, 7, 0,20, 0.00,60.00,Saturday       
349,1321.29768538084
380,0.0
2,7, 1, 7, 0,21, 0.00,60.00,Saturday       
349,454900.800639573
380,0.0
2,7, 1, 7, 0,22, 0.00,60.00,Saturday       
349,711134.4542566
380,0.0
2,7, 1, 7, 0,23, 0.00,60.00,Saturday       
349,789485.94184848
380,0.0
2,7, 1, 7, 0,24, 0.00,60.00,Saturday       
349,838694.056214559
380,0.0
2,8, 1, 8, 0, 1, 0.00,60.00,Sunday         
349,1022639.82674531
380,0.0
2,8, 1, 8, 0, 2, 0.00,60.00,Sunday         
349,1106498.34080746
380,0.0
2,8, 1, 8, 0, 3, 0.00,60.00,Sunday         
349,1166885.95104548
380,0.0
2,8, 1, 8, 0, 4, 0.00,60.00,Sunday         
349,1123480.36678399
380,0.0
2,8, 1, 8, 0, 5, 0.00,60.00,Sunday         
349,1093491.78549482
380,0.0
2,8, 1, 8, 0, 6, 0.00,60.00,Sunday         
349,1132934.12606398
380,0.0
2,8, 1, 8, 0, 7, 0.00,60.00,Sunday         
349,1252888.45781925
380,0.0
2,8, 1, 8, 0, 8, 0.00,60.00,Sunday         
349,4949189.70011763
380,0.0
2,8, 1, 8, 0, 9, 0.00,60.00,Sunday         
349,2217654.6035035
380,0.0
2,8, 1, 8, 0,10, 0.00,60.00,Sunday         
349,1521764.49648339
380,0.0
2,8, 1, 8, 0,11, 0.00,60.00,Sunday         
349,1060231.7394347
380,0.0
2,8, 1, 8, 0,12, 0.00,60.00,Sunday         
349,648726.382644757
380,0.0
2,8, 1, 8, 0,13, 0.00,60.00,Sunday         
349,375620.085029848
380,0.0
2,8, 1, 8, 0,14, 0.00,60.00,Sunday         
349,185294.776262385
380,0.0
2,8, 1, 8, 0,15, 0.00,60.00,Sunday         
349,205021.732057569
380,0.0
2,8, 1, 8, 0,16, 0.00,60.00,Sunday         
349,390306.658374177
380,0.0
2,8, 1, 8, 0,17, 0.00,60.00,Sunday         
349,824406.76754414
380,0.0
2,8, 1, 8, 0,18, 0.00,60.00,Sunday         
349,1384109.19715505
380,0.0
2,8, 1, 8, 0,19, 0.00,60.00,Sunday         
349,0.0
380,0.0
2,8, 1, 8, 0,20, 0.00,60.00,Sunday         
349,537649.604471711
380,0.0
2,8, 1, 8, 0,21, 0.00,60.00,Sunday         
349,1432103.07766552
380,0.0
2,8, 1, 8, 0,22, 0.00,60.00,Sunday         
349,1983931.15171831
380,0.0
2,8, 1, 8, 0,23, 0.00,60.00,Sunday         
349,2407731.92059049
380,0.0
2,8, 1, 8, 0,24, 0.00,60.00,Sunday         
349,2592873.57121383
380,0.0
2,9, 1, 9, 0, 1, 0.00,60.00,Monday         
349,2668138.13199453
380,0.0
2,9, 1, 9, 0, 2, 0.00,60.00,Monday         
349,2726842.15517965
380,0.0
2,9, 1, 9, 0, 3, 0.00,60.00,Monday         
349,2745234.59157464
380,0.0
2,9, 1, 9, 0, 4, 0.00,60.00,Monday         
349,2598396.86012223
380,0.0
2,9, 1, 9, 0, 5, 0.00,60.00,Monday         
349,2334726.49011034
380,0.0
2,9, 1, 9, 0, 6, 0.00,60.00,Monday         
349,1983147.67305535
380,0.0
2,9, 1, 9, 0, 7, 0.00,60.00,Monday         
349,1055690.93820039
380,0.0
2,9, 1, 9, 0, 8, 0.00,60.00,Monday         
349,3241284.42532886
380,0.0
2,9, 1, 9, 0, 9, 0.00,60.00,Monday         
349,100683.829279901
380,0.0
2,9, 1, 9, 0,10, 0.00,60.00,Monday         
349,0.0
380,0.0
2,9, 1, 9, 0,11, 0.00,60.00,Monday         
349,0.0
380,0.0
2,9, 1, 9, 0,12, 0.00,60.00,Monday         
349,0.0
380,0.0
2,9, 1, 9, 0,13, 0.00,60.00,Monday         
349,0.0
380,0.0
2,9, 1, 9, 0,14, 0.00,60.00,Monday         
349,0.0
380,0.0
2,9, 1, 9, 0,15, 0.00,60.00,Monday         
349,0.0
380,0.0
2,9, 1, 9, 0,16, 0.00,60.00,Monday         
349,0.0
380,0.0
2,9, 1, 9, 0,17, 0.00,60.00,Monday         
349,0.0
380,0.0
2,9, 1, 9, 0,18, 0.00,60.00,Monday         
349,11975.5739203915
380,0.0
2,9, 1, 9, 0,19, 0.00,60.00,Monday         
349,0.0
380,0.0
2,9, 1, 9, 0,20, 0.00,60.00,Monday         
349,519278.172792501
380,0.0
2,9, 1, 9, 0,21, 0.00,60.00,Monday         
349,1456657.81804783
380,0.0
2,9, 1, 9, 0,22, 0.00,60.00,Monday         
349,1892693.51635505
380,0.0
2,9, 1, 9, 0,23, 0.00,60.00,Monday         
349,2320518.75667753
380,0.0
2,9, 1, 9, 0,24, 0.00,60.00,Monday         
349,2420937.30529119
380,0.0
2,10, 1,10, 0, 1, 0.00,60.00,Tuesday        
349,2475010.1061959
380,0.0
2,10, 1,10, 0, 2, 0.00,60.00,Tuesday        
349,2445700.95152638
380,0.0
2,10, 1,10, 0, 3, 0.00,60.00,Tuesday        
349,2368349.76537849
380,0.0
2,10, 1,10, 0, 4, 0.00,60.00,Tuesday        
349,2318997.68269699
380,0.0
2,10, 1,10, 0, 5, 0.00,60.00,Tuesday        
349,2188407.17147328
380,0.0
2,10, 1,10, 0, 6, 0.00,60.00,Tuesday        
349,1887487.711374
380,0.0
2,10, 1,10, 0, 7, 0.00,60.00,Tuesday        
349,951370.099220941
380,0.0
2,10, 1,10, 0, 8, 0.00,60.00,Tuesday        
349,3179989.70358017
380,0.0
2,10, 1,10, 0, 9, 0.00,60.00,Tuesday        
349,79758.7117066107
380,0.0
2,10, 1,10, 0,10, 0.00,60.00,Tuesday        
349,0.0
380,0.0
2,10, 1,10, 0,11, 0.00,60.00,Tuesday        
349,0.0
380,0.0
2,10, 1,10, 0,12, 0.00,60.00,Tuesday        
349,0.0
380,0.0
2,10, 1,10, 0,13, 0.00,60.00,Tuesday        
349,0.0
380,0.0
2,10, 1,10, 0,14, 0.00,60.00,Tuesday        
349,0.0
380,0.0
2,10, 1,10, 0,15, 0.00,60.00,Tuesday        
349,0.0
380,0.0
2,10, 1,10, 0,16, 0.00,60.00,Tuesday        
349,0.0
380,0.0
2,10, 1,10, 0,17, 0.00,60.00,Tuesday        
349,0.0
380,0.0
2,10, 1,10, 0,18, 0.00,60.00,Tuesday        
349,0.0
380,0.0
2,10, 1,10, 0,19, 0.00,60.00,Tuesday        
349,0.0
380,0.0
2,10, 1,10, 0,20, 0.00,60.00,Tuesday        
349,155807.54062648
380,0.0
2,10, 1,10, 0,21, 0.00,60.00,Tuesday        
349,940332.204293353
380,0.0
2,10, 1,10, 0,22, 0.00,60.00,Tuesday        
349,1293201.94480447
380,0.0
2,10, 1,10, 0,23, 0.00,60.00,Tuesday        
349,1730581.89997674
380,0.0
2,10, 1,10, 0,24, 0.00,60.00,Tuesday        
349,2187861.73458944
380,0.0
2,11, 1,11, 0, 1, 0.00,60.00,Wednesday      
349,2318467.3368712
380,0.0
2,11, 1,11, 0, 2, 0.00,60.00,Wednesday      
349,2290288.33476134
380,0.0
2,11, 1,11, 0, 3, 0.00,60.00,Wednesday      
349,2302179.51520122
380,0.0
2,11, 1,11, 0, 4, 0.00,60.00,Wednesday      
349,2300963.23972138
380,0.0
2,11, 1,11, 0, 5, 0.00,60.00,Wednesday      
349,2097983.13536778
380,0.0
2,11, 1,11, 0, 6, 0.00,60.00,Wednesday      
349,1803531.31709709
380,0.0
2,11, 1,11, 0, 7, 0.00,60.00,Wednesday      
349,1052752.469751
380,0.0
2,11, 1,11, 0, 8, 0.00,60.00,Wednesday      
349,3410024.38256173
380,0.0
2,11, 1,11, 0, 9, 0.00,60.00,Wednesday      
349,178207.08436719
380,0.0
2,11, 1,11, 0,10, 0.00,60.00,Wednesday      
349,0.0
380,0.0
2,11, 1,11, 0,11, 0.00,60.00,Wednesday      
349,0.0
380,0.0
2,11, 1,11, 0,12, 0.00,60.00,Wednesday      
349,0.0
380,0.0
2,11, 1,11, 0,13, 0.00,60.00,Wednesday      
349,0.0
380,0.0
2,11, 1,11, 0,14, 0.00,60.00,Wednesday      
349,0.0
380,0.0
2,11, 1,11, 0,15, 0.00,60.00,Wednesday      
349,0.0
380,0.0
2,11, 1,11, 0,16, 0.00,60.00,Wednesday      
349,0.0
380,0.0
2,11, 1,11, 0,17, 0.00,60.00,Wednesday      
349,0.0
380,0.0
2,11, 1,11, 0,18, 0.00,60.00,Wednesday      
349,12543.7881720652
380,0.0
2,11, 1,11, 0,19, 0.00,60.00,Wednesday      
349,0.0
380,0.0
2,11, 1,11, 0,20, 0.00,60.00,Wednesday      
349,645754.385616197
380,0.0
2,11, 1,11, 0,21, 0.00,60.00,Wednesday      
349,1571124.7467647
380,0.0
2,11, 1,11, 0,22, 0.00,60.00,Wednesday      
349,1906079.25106945
380,0.0
2,11, 1,11, 0,23, 0.00,60.00,Wednesday      
349,2390057.0203943
380,0.0
2,11, 1,11, 0,24, 0.00,60.00,Wednesday      
349,2559807.96625249
380,0.0
2,12, 1,12, 0, 1, 0.00,60.00,Thursday       
349,2227922.19472883
380,0.0
2,12, 1,12, 0, 2, 0.00,60.00,Thursday       
349,2033682.05801429
380,0.0
2,12, 1,12, 0, 3, 0.00,60.00,Thursday       
349,2117405.89033275
380,0.0
2,12, 1,12, 0, 4, 0.00,60.00,Thursday       
349,1963211.68294893
380,0.0
2,12, 1,12, 0, 5, 0.00,60.00,Thursday       
349,1573362.01268982
380,0.0
2,12, 1,12, 0, 6, 0.00,60.00,Thursday       
349,1295407.84410732
380,0.0
2,12, 1,12, 0, 7, 0.00,60.00,Thursday       
349,236938.376339705
380,0.0
2,12, 1,12, 0, 8, 0.00,60.00,Thursday       
349,2474066.21268763
380,0.0
2,12, 1,12, 0, 9, 0.00,60.00,Thursday       
349,0.0
380,0.0
2,12, 1,12, 0,10, 0.00,60.00,Thursday       
349,0.0
380,0.0
2,12, 1,12, 0,11, 0.00,60.00,Thursday       
349,0.0
380,0.0
2,12, 1,12, 0,12, 0.00,60.00,Thursday       
349,0.0
380,0.0
2,12, 1,12, 0,13, 0.00,60.00,Thursday       
349,0.0
380,0.0
2,12, 1,12, 0,14, 0.00,60.00,Thursday       
349,0.0
380,0.0
2,12, 1,12, 0,15, 0.00,60.00,Thursday       
349,0.0
380,0.0
2,12, 1,12, 0,16, 0.00,60.00,Thursday       
349,0.0
380,0.0
2,12, 1,12, 0,17, 0.00,60.00,Thursday       
349,0.0
380,0.0
2,12, 1,12, 0,18, 0.00,60.00,Thursday       
349,0.0
380,0.0
2,12, 1,12, 0,19, 0.00,60.00,Thursday       
349,0.0
380,0.0
2,12, 1,12, 0,20, 0.00,60.00,Thursday       
349,693267.337129127
380,0.0
2,12, 1,12, 0,21, 0.00,60.00,Thursday       
349,1747369.06791485
380,0.0
2,12, 1,12, 0,22, 0.00,60.00,Thursday       
349,2233868.63526369
380,0.0
2,12, 1,12, 0,23, 0.00,60.00,Thursday       
349,2761288.88960872
380,0.0
2,12, 1,12, 0,24, 0.00,60.00,Thursday       
349,3016518.89548454
380,0.0
2,13, 1,13, 0, 1, 0.00,60.00,Friday         
349,3064201.01308054
380,0.0
2,13, 1,13, 0, 2, 0.00,60.00,Friday         
349,2970522.99020128
380,0.0
2,13, 1,13, 0, 3, 0.00,60.00,Friday         
349,2916539.01195163
380,0.0
2,13, 1,13, 0, 4, 0.00,60.00,Friday         
349,2909706.07018082
380,0.0
2,13, 1,13, 0, 5, 0.00,60.00,Friday         
349,2802985.09749607
380,0.0
2,13, 1,13, 0, 6, 0.00,60.00,Friday         
349,2531343.36163209
380,0.0
2,13, 1,13, 0, 7, 0.00,60.00,Friday         
349,1535618.00916911
380,0.0
2,13, 1,13, 0, 8, 0.00,60.00,Friday         
349,3717186.9009776
380,0.0
2,13, 1,13, 0, 9, 0.00,60.00,Friday         
349,484439.716422296
380,0.0
2,13, 1,13, 0,10, 0.00,60.00,Friday         
349,0.0
380,0.0
2,13, 1,13, 0,11, 0.00,60.00,Friday         
349,0.0
380,0.0
2,13, 1,13, 0,12, 0.00,60.00,Friday         
349,0.0
380,0.0
2,13, 1,13, 0,13, 0.00,60.00,Friday         
349,0.0
380,0.0
2,13, 1,13, 0,14, 0.00,60.00,Friday         
349,0.0
380,0.0
2,13, 1,13, 0,15, 0.00,60.00,Friday         
349,0.0
380,0.0
2,13, 1,13, 0,16, 0.00,60.00,Friday         
349,0.0
380,0.0
2,13, 1,13, 0,17, 0.00,60.00,Friday         
349,0.0
380,0.0
2,13, 1,13, 0,18, 0.00,60.00,Friday         
349,14588.7785514074
380,0.0
2,13, 1,13, 0,19, 0.00,60.00,Friday         
349,6352.24110403815
380,0.0
2,13, 1,13, 0,20, 0.00,60.00,Friday         
349,806773.532026942
380,0.0
2,13, 1,13, 0,21, 0.00,60.00,Friday         
349,1737905.26871695
380,0.0
2,13, 1,13, 0,22, 0.00,60.00,Friday         
349,2019785.0535895
380,0.0
2,13, 1,13, 0,23, 0.00,60.00,Friday         
349,2247560.53012474
380,0.0
2,13, 1,13, 0,24, 0.00,60.00,Friday         
349,2484295.77460694
380,0.0
2,14, 1,14, 0, 1, 0.00,60.00,Saturday       
349,2543066.53635615
380,0.0
2,14, 1,14, 0, 2, 0.00,60.00,Saturday       
349,2700946.57769248
380,0.0
2,14, 1,14, 0, 3, 0.00,60.00,Saturday       
349,2864177.40910701
380,0.0
2,14, 1,14, 0, 4, 0.00,60.00,Saturday       
349,2801089.88079666
380,0.0
2,14, 1,14, 0, 5, 0.00,60.00,Saturday       
349,2713692.03051728
380,0.0
2,14, 1,14, 0, 6, 0.00,60.00,Saturday       
349,2644222.04835818
380,0.0
2,14, 1,14, 0, 7, 0.00,60.00,Saturday       
349,2364817.06763015
380,0.0
2,14, 1,14, 0, 8, 0.00,60.00,Saturday       
349,5325436.88232057
380,0.0
2,14, 1,14, 0, 9, 0.00,60.00,Saturday       
349,2756470.81043097
380,0.0
2,14, 1,14, 0,10, 0.00,60.00,Saturday       
349,2050528.15270396
380,0.0
2,14, 1,14, 0,11, 0.00,60.00,Saturday       
349,1633197.20439315
380,0.0
2,14, 1,14, 0,12, 0.00,60.00,Saturday       
349,1268546.83141293
380,0.0
2,14, 1,14, 0,13, 0.00,60.00,Saturday       
349,818029.985755711
380,0.0
2,14, 1,14, 0,14, 0.00,60.00,Saturday       
349,560855.960702289
380,0.0
2,14, 1,14, 0,15, 0.00,60.00,Saturday       
349,718082.456958525
380,0.0
2,14, 1,14, 0,16, 0.00,60.00,Saturday       
349,877274.952322851
380,0.0
2,14, 1,14, 0,17, 0.00,60.00,Saturday       
349,1430978.15970815
380,0.0
2,14, 1,14, 0,18, 0.00,60.00,Saturday       
349,2388369.188744
380,0.0
2,14, 1,14, 0,19, 0.00,60.00,Saturday       
349,580279.510684079
380,0.0
2,14, 1,14, 0,20, 0.00,60.00,Saturday       
349,2100975.54687871
380,0.0
2,14, 1,14, 0,21, 0.00,60.00,Saturday       
349,2664812.81108612
380,0.0
2,14, 1,14, 0,22, 0.00,60.00,Saturday       
349,2842561.41593853
380,0.0
2,14, 1,14, 0,23, 0.00,60.00,Saturday       
349,2888145.64712112
380,0.0
2,14, 1,14, 0,24, 0.00,60.00,Saturday       
349,3126452.58519993
380,0.0
2,15, 1,15, 0, 1, 0.00,60.00,Sunday         
349,3468062.02837816
380,0.0
2,15, 1,15, 0, 2, 0.00,60.00,Sunday         
349,3599843.12953707
380,0.0
2,15, 1,15, 0, 3, 0.00,60.00,Sunday         
349,3621265.00952375
380,0.0
2,15, 1,15, 0, 4, 0.00,60.00,Sunday         
349,3697645.75745088
380,0.0
2,15, 1,15, 0, 5, 0.00,60.00,Sunday         
349,3855839.60987021
380,0.0
2,15, 1,15, 0, 6, 0.00,60.00,Sunday         
349,3816765.7471657
380,0.0
2,15, 1,15, 0, 7, 0.00,60.00,Sunday         
349,3803822.10876536
380,0.0
2,15, 1,15, 0, 8, 0.00,60.00,Sunday         
349,6939188.11583779
380,0.0
2,15, 1,15, 0, 9, 0.00,60.00,Sunday         
349,4423342.05848157
380,0.0
2,15, 1,15, 0,10, 0.00,60.00,Sunday         
349,3540004.06596036
380,0.0
2,15, 1,15, 0,11, 0.00,60.00,Sunday         
349,2911164.7585922
380,0.0
2,15, 1,15, 0,12, 0.00,60.00,Sunday         
349,2458309.65954068
380,0.0
2,15, 1,15, 0,13, 0.00,60.00,Sunday         
349,2049617.28401298
380,0.0
2,15, 1,15, 0,14, 0.00,60.00,Sunday         
349,1798068.01712806
380,0.0
2,15, 1,15, 0,15, 0.00,60.00,Sunday         
349,1741480.88877576
380,0.0
2,15, 1,15, 0,16, 0.00,60.00,Sunday         
349,1949779.46894035
380,0.0
2,15, 1,15, 0,17, 0.00,60.00,Sunday         
349,2265297.99143666
380,0.0
2,15, 1,15, 0,18, 0.00,60.00,Sunday         
349,2614797.3975406
380,0.0
2,15, 1,15, 0,19, 0.00,60.00,Sunday         
349,311864.866651574
380,0.0
2,15, 1,15, 0,20, 0.00,60.00,Sunday         
349,1736672.54444958
380,0.0
2,15, 1,15, 0,21, 0.00,60.00,Sunday         
349,2371513.61915916
380,0.0
2,15, 1,15, 0,22, 0.00,60.00,Sunday         
349,2681467.54040501
380,0.0
2,15, 1,15, 0,23, 0.00,60.00,Sunday         
349,2853685.06401647
380,0.0
2,15, 1,15, 0,24, 0.00,60.00,Sunday         
349,3051693.29818693
380,0.0
2,16, 1,16, 0, 1, 0.00,60.00,Monday         
349,3245142.46382333
380,0.0
2,16, 1,16, 0, 2, 0.00,60.00,Monday         
349,3184032.56981157
380,0.0
2,16, 1,16, 0, 3, 0.00,60.00,Monday         
349,3100976.48547658
380,0.0
2,16, 1,16, 0, 4, 0.00,60.00,Monday         
349,3007984.17669248
380,0.0
2,16, 1,16, 0, 5, 0.00,60.00,Monday         
349,2792317.2241467
380,0.0
2,16, 1,16, 0, 6, 0.00,60.00,Monday         
349,2475551.08899115
380,0.0
2,16, 1,16, 0, 7, 0.00,60.00,Monday         
349,1499178.78315095
380,0.0
2,16, 1,16, 0, 8, 0.00,60.00,Monday         
349,3656136.2473635
380,0.0
2,16, 1,16, 0, 9, 0.00,60.00,Monday         
349,518171.067417703
380,0.0
2,16, 1,16, 0,10, 0.00,60.00,Monday         
349,763.228502947062
380,0.0
2,16, 1,16, 0,11, 0.00,60.00,Monday         
349,0.0
380,0.0
2,16, 1,16, 0,12, 0.00,60.00,Monday         
349,0.0
380,0.0
2,16, 1,16, 0,13, 0.00,60.00,Monday         
349,0.0
380,0.0
2,16, 1,16, 0,14, 0.00,60.00,Monday         
349,0.0
380,0.0
2,16, 1,16, 0,15, 0.00,60.00,Monday         
349,0.0
380,0.0
2,16, 1,16, 0,16, 0.00,60.00,Monday         
349,0.0
380,0.0
2,16, 1,16, 0,17, 0.00,60.00,Monday         
349,0.0
380,0.0
2,16, 1,16, 0,18, 0.00,60.00,Monday         
349,68114.0296635101
380,0.0
2,16, 1,16, 0,19, 0.00,60.00,Monday         
349,0.0
380,0.0
2,16, 1,16, 0,20, 0.00,60.00,Monday         
349,965666.949016143
380,0.0
2,16, 1,16, 0,21, 0.00,60.00,Monday         
349,1887797.12087713
380,0.0
2,16, 1,16, 0,22, 0.00,60.00,Monday         
349,2440094.43617695
380,0.0
2,16, 1,16, 0,23, 0.00,60.00,Monday         
349,2807508.44325208
380,0.0
2,16, 1,16, 0,24, 0.00,60.00,Monday         
349,2710228.4759527
380,0.0
2,17, 1,17, 0, 1, 0.00,60.00,Tuesday        
349,2695061.21172925
380,0.0
2,17, 1,17, 0, 2, 0.00,60.00,Tuesday        
349,2836370.15666381
380,0.0
2,17, 1,17, 0, 3, 0.00,60.00,Tuesday        
349,2954251.0279301
380,0.0
2,17, 1,17, 0, 4, 0.00,60.00,Tuesday        
349,3049038.76236097
380,0.0
2,17, 1,17, 0, 5, 0.00,60.00,Tuesday        
349,2802403.11791764
380,0.0
2,17, 1,17, 0, 6, 0.00,60.00,Tuesday        
349,2299398.25724221
380,0.0
2,17, 1,17, 0, 7, 0.00,60.00,Tuesday        
349,1319199.22434207
380,0.0
2,17, 1,17, 0, 8, 0.00,60.00,Tuesday        
349,3377446.56303986
380,0.0
2,17, 1,17, 0, 9, 0.00,60.00,Tuesday        
349,220400.962235127
380,0.0
2,17, 1,17, 0,10, 0.00,60.00,Tuesday        
349,0.0
380,0.0
2,17, 1,17, 0,11, 0.00,60.00,Tuesday        
349,0.0
380,0.0
2,17, 1,17, 0,12, 0.00,60.00,Tuesday        
349,0.0
380,0.0
2,17, 1,17, 0,13, 0.00,60.00,Tuesday        
349,0.0
380,0.0
2,17, 1,17, 0,14, 0.00,60.00,Tuesday        
349,0.0
380,0.0
2,17, 1,17, 0,15, 0.00,60.00,Tuesday        
349,0.0
380,0.0
2,17, 1,17, 0,16, 0.00,60.00,Tuesday        
349,0.0
380,0.0
2,17, 1,17, 0,17, 0.00,60.00,Tuesday        
349,0.0
380,0.0
2,17, 1,17, 0,18, 0.00,60.00,Tuesday        
349,5163.98611394356
380,0.0
2,17, 1,17, 0,19, 0.00,60.00,Tuesday        
349,0.0
380,0.0
2,17, 1,17, 0,20, 0.00,60.00,Tuesday        
349,864467.557920966
380,0.0
2,17, 1,17, 0,21, 0.00,60.00,Tuesday        
349,1710514.42235232
380,0.0
2,17, 1,17, 0,22, 0.00,60.00,Tuesday        
349,2027742.65037597
380,0.0
2,17, 1,17, 0,23, 0.00,60.00,Tuesday        
349,2257640.15960036
380,0.0
2,17, 1,17, 0,24, 0.00,60.00,Tuesday        
349,2378459.88387612
380,0.0
2,18, 1,18, 0, 1, 0.00,60.00,Wednesday      
349,2460202.15567912
380,0.0
2,18, 1,18, 0, 2, 0.00,60.00,Wednesday      
349,2487105.42866073
380,0.0
2,18, 1,18, 0, 3, 0.00,60.00,Wednesday      
349,2497295.43394491
380,0.0
2,18, 1,18, 0, 4, 0.00,60.00,Wednesday      
349,2501166.12692339
380,0.0
2,18, 1,18, 0, 5, 0.00,60.00,Wednesday      
349,2295140.7757123
380,0.0
2,18, 1,18, 0, 6, 0.00,60.00,Wednesday      
349,1907366.31573865
380,0.0
2,18, 1,18, 0, 7, 0.00,60.00,Wednesday      
349,965793.03269449
380,0.0
2,18, 1,18, 0, 8, 0.00,60.00,Wednesday      
349,3190940.06321258
380,0.0