Program Version,EnergyPlus, Version 8.8, YMD=2015.03.19 00:35
1,5,Environment Title[],Latitude[deg],Longitude[deg],Time Zone[],Elevation[m]
2,6,Day of Simulation[],Month[],Day of Month[],DST Indicator[1=yes 0=no],Hour[],StartMinute[],EndMinute[],DayType
3,3,Cumulative Day of Simulation[],Month[],Day of Month[],DST Indicator[1=yes 0=no],DayType  ! When Daily Meters Requested
4,2,Cumulative Days of Simulation[],Month[]  ! When Monthly Meters Requested
5,1,Cumulative Days of Simulation[] ! When Run Period Meters Requested
103,1,DistrictHeating:HVAC [J] !Hourly
134,1,DistrictCooling:HVAC [J] !Hourly
126,9,DistrictCooling:Facility [J] !Monthly  [Value,Min,Day,Hour,Minute,Max,Day,Hour,Minute]
95,9,DistrictHeating:Facility [J] !Monthly  [Value,Min,Day,Hour,Minute,Max,Day,Hour,Minute]
725,9,Carbon Equivalent:Facility [kg] !Monthly  [Value,Min,Day,Hour,Minute,Max,Day,Hour,Minute]
End of Data Dictionary
1,ANNUAL,  51.15,  -0.18,   0.00,  62.00
2,1, 1, 1, 0, 1, 0.00,60.00,Sunday         
103,2693643.55045246
134,0.0
2,1, 1, 1, 0, 2, 0.00,60.00,Sunday         
103,3138360.54299814
134,0.0
2,1, 1, 1, 0, 3, 0.00,60.00,Sunday         
103,3479042.72459812
134,0.0
2,1, 1, 1, 0, 4, 0.00,60.00,Sunday         
103,3666234.45952389
134,0.0
2,1, 1, 1, 0, 5, 0.00,60.00,Sunday         
103,3919811.37401346
134,0.0
2,1, 1, 1, 0, 6, 0.00,60.00,Sunday         
103,4035647.00093225
134,0.0
2,1, 1, 1, 0, 7, 0.00,60.00,Sunday         
103,3747934.25226561
134,0.0
2,1, 1, 1, 0, 8, 0.00,60.00,Sunday         
103,6860656.07040249
134,0.0
2,1, 1, 1, 0, 9, 0.00,60.00,Sunday         
103,4506846.06777977
134,0.0
2,1, 1, 1, 0,10, 0.00,60.00,Sunday         
103,3924212.6813095
134,0.0
2,1, 1, 1, 0,11, 0.00,60.00,Sunday         
103,3378648.89150038
134,0.0
2,1, 1, 1, 0,12, 0.00,60.00,Sunday         
103,2851899.21962054
134,0.0
2,1, 1, 1, 0,13, 0.00,60.00,Sunday         
103,2633104.91647322
134,0.0
2,1, 1, 1, 0,14, 0.00,60.00,Sunday         
103,2535021.54270857
134,0.0
2,1, 1, 1, 0,15, 0.00,60.00,Sunday         
103,2646660.29213174
134,0.0
2,1, 1, 1, 0,16, 0.00,60.00,Sunday         
103,2825980.2411881
134,0.0
2,1, 1, 1, 0,17, 0.00,60.00,Sunday         
103,3155643.739237
134,0.0
2,1, 1, 1, 0,18, 0.00,60.00,Sunday         
103,3445910.83834035
134,0.0
2,1, 1, 1, 0,19, 0.00,60.00,Sunday         
103,544809.803053673
134,0.0
2,1, 1, 1, 0,20, 0.00,60.00,Sunday         
103,1980998.59090399
134,0.0
2,1, 1, 1, 0,21, 0.00,60.00,Sunday         
103,2506150.95636586
134,0.0
2,1, 1, 1, 0,22, 0.00,60.00,Sunday         
103,2657946.82829202
134,0.0
2,1, 1, 1, 0,23, 0.00,60.00,Sunday         
103,2664439.8738382
134,0.0
2,1, 1, 1, 0,24, 0.00,60.00,Sunday         
103,2504166.13725579
134,0.0
2,2, 1, 2, 0, 1, 0.00,60.00,Monday         
103,2218695.97359212
134,0.0
2,2, 1, 2, 0, 2, 0.00,60.00,Monday         
103,1932574.77848068
134,0.0
2,2, 1, 2, 0, 3, 0.00,60.00,Monday         
103,1790248.06106442
134,0.0
2,2, 1, 2, 0, 4, 0.00,60.00,Monday         
103,1771311.4752593
134,0.0
2,2, 1, 2, 0, 5, 0.00,60.00,Monday         
103,1659980.89809033
134,0.0
2,2, 1, 2, 0, 6, 0.00,60.00,Monday         
103,1604621.38867053
134,0.0
2,2, 1, 2, 0, 7, 0.00,60.00,Monday         
103,1380462.1641542
134,0.0
2,2, 1, 2, 0, 8, 0.00,60.00,Monday         
103,5192837.51750183
134,0.0
2,2, 1, 2, 0, 9, 0.00,60.00,Monday         
103,2623869.66934582
134,0.0
2,2, 1, 2, 0,10, 0.00,60.00,Monday         
103,2155325.98862352
134,0.0
2,2, 1, 2, 0,11, 0.00,60.00,Monday         
103,2067292.40820374
134,0.0
2,2, 1, 2, 0,12, 0.00,60.00,Monday         
103,2100372.65773973
134,0.0
2,2, 1, 2, 0,13, 0.00,60.00,Monday         
103,2001427.39834867
134,0.0
2,2, 1, 2, 0,14, 0.00,60.00,Monday         
103,1845088.9528795
134,0.0
2,2, 1, 2, 0,15, 0.00,60.00,Monday         
103,1763635.90474926
134,0.0
2,2, 1, 2, 0,16, 0.00,60.00,Monday         
103,1917848.68978008
134,0.0
2,2, 1, 2, 0,17, 0.00,60.00,Monday         
103,2267933.239788
134,0.0
2,2, 1, 2, 0,18, 0.00,60.00,Monday         
103,2449514.13475967
134,0.0
2,2, 1, 2, 0,19, 0.00,60.00,Monday         
103,146865.208998116
134,0.0
2,2, 1, 2, 0,20, 0.00,60.00,Monday         
103,1259891.55028135
134,0.0
2,2, 1, 2, 0,21, 0.00,60.00,Monday         
103,1850853.63147032
134,0.0
2,2, 1, 2, 0,22, 0.00,60.00,Monday         
103,2115682.05596433
134,0.0
2,2, 1, 2, 0,23, 0.00,60.00,Monday         
103,2374973.85317391
134,0.0
2,2, 1, 2, 0,24, 0.00,60.00,Monday         
103,2297898.80586098
134,0.0
2,3, 1, 3, 0, 1, 0.00,60.00,Tuesday        
103,2323466.69422376
134,0.0
2,3, 1, 3, 0, 2, 0.00,60.00,Tuesday        
103,2451093.30459194
134,0.0
2,3, 1, 3, 0, 3, 0.00,60.00,Tuesday        
103,2721217.60056365
134,0.0
2,3, 1, 3, 0, 4, 0.00,60.00,Tuesday        
103,2783931.30150841
134,0.0
2,3, 1, 3, 0, 5, 0.00,60.00,Tuesday        
103,2673706.94625081
134,0.0
2,3, 1, 3, 0, 6, 0.00,60.00,Tuesday        
103,2674273.44332953
134,0.0
2,3, 1, 3, 0, 7, 0.00,60.00,Tuesday        
103,2433212.91630688
134,0.0
2,3, 1, 3, 0, 8, 0.00,60.00,Tuesday        
103,6143805.05376794
134,0.0
2,3, 1, 3, 0, 9, 0.00,60.00,Tuesday        
103,3425816.09514894
134,0.0
2,3, 1, 3, 0,10, 0.00,60.00,Tuesday        
103,2820871.13915082
134,0.0
2,3, 1, 3, 0,11, 0.00,60.00,Tuesday        
103,2438083.57574284
134,0.0
2,3, 1, 3, 0,12, 0.00,60.00,Tuesday        
103,2147950.63678666
134,0.0
2,3, 1, 3, 0,13, 0.00,60.00,Tuesday        
103,2010633.51739305
134,0.0
2,3, 1, 3, 0,14, 0.00,60.00,Tuesday        
103,1986646.14193466
134,0.0
2,3, 1, 3, 0,15, 0.00,60.00,Tuesday        
103,2069507.18649856
134,0.0
2,3, 1, 3, 0,16, 0.00,60.00,Tuesday        
103,2236513.06560874
134,0.0
2,3, 1, 3, 0,17, 0.00,60.00,Tuesday        
103,2394874.82961279
134,0.0
2,3, 1, 3, 0,18, 0.00,60.00,Tuesday        
103,2622711.46055502
134,0.0
2,3, 1, 3, 0,19, 0.00,60.00,Tuesday        
103,316897.780731957
134,0.0
2,3, 1, 3, 0,20, 0.00,60.00,Tuesday        
103,1790712.61224655
134,0.0
2,3, 1, 3, 0,21, 0.00,60.00,Tuesday        
103,2403596.34597576
134,0.0
2,3, 1, 3, 0,22, 0.00,60.00,Tuesday        
103,2717057.69787668
134,0.0
2,3, 1, 3, 0,23, 0.00,60.00,Tuesday        
103,3039020.49483804
134,0.0
2,3, 1, 3, 0,24, 0.00,60.00,Tuesday        
103,2972999.39230524
134,0.0
2,4, 1, 4, 0, 1, 0.00,60.00,Wednesday      
103,3024821.02942954
134,0.0
2,4, 1, 4, 0, 2, 0.00,60.00,Wednesday      
103,3039781.94175385
134,0.0
2,4, 1, 4, 0, 3, 0.00,60.00,Wednesday      
103,2927379.44482812
134,0.0
2,4, 1, 4, 0, 4, 0.00,60.00,Wednesday      
103,3025236.55033187
134,0.0
2,4, 1, 4, 0, 5, 0.00,60.00,Wednesday      
103,3246887.4294365
134,0.0
2,4, 1, 4, 0, 6, 0.00,60.00,Wednesday      
103,3365370.61961654
134,0.0
2,4, 1, 4, 0, 7, 0.00,60.00,Wednesday      
103,3118104.95981956
134,0.0
2,4, 1, 4, 0, 8, 0.00,60.00,Wednesday      
103,6390904.76805219
134,0.0
2,4, 1, 4, 0, 9, 0.00,60.00,Wednesday      
103,4141020.79363501
134,0.0
2,4, 1, 4, 0,10, 0.00,60.00,Wednesday      
103,3346080.15741151
134,0.0
2,4, 1, 4, 0,11, 0.00,60.00,Wednesday      
103,3052059.77969699
134,0.0
2,4, 1, 4, 0,12, 0.00,60.00,Wednesday      
103,2969751.41195485
134,0.0
2,4, 1, 4, 0,13, 0.00,60.00,Wednesday      
103,2682120.94688272
134,0.0
2,4, 1, 4, 0,14, 0.00,60.00,Wednesday      
103,2520942.45322303
134,0.0
2,4, 1, 4, 0,15, 0.00,60.00,Wednesday      
103,2486916.68714777
134,0.0
2,4, 1, 4, 0,16, 0.00,60.00,Wednesday      
103,2684803.20764379
134,0.0
2,4, 1, 4, 0,17, 0.00,60.00,Wednesday      
103,3027973.7296856
134,0.0
2,4, 1, 4, 0,18, 0.00,60.00,Wednesday      
103,3263551.03689665
134,0.0
2,4, 1, 4, 0,19, 0.00,60.00,Wednesday      
103,814084.331752233
134,0.0
2,4, 1, 4, 0,20, 0.00,60.00,Wednesday      
103,2334914.20838488
134,0.0
2,4, 1, 4, 0,21, 0.00,60.00,Wednesday      
103,2799619.41893905
134,0.0
2,4, 1, 4, 0,22, 0.00,60.00,Wednesday      
103,3009096.96903848
134,0.0
2,4, 1, 4, 0,23, 0.00,60.00,Wednesday      
103,3388073.82719072
134,0.0
2,4, 1, 4, 0,24, 0.00,60.00,Wednesday      
103,3402822.19735222
134,0.0
2,5, 1, 5, 0, 1, 0.00,60.00,Thursday       
103,3330341.10660451
134,0.0
2,5, 1, 5, 0, 2, 0.00,60.00,Thursday       
103,3156061.36153835
134,0.0
2,5, 1, 5, 0, 3, 0.00,60.00,Thursday       
103,2935728.20258902
134,0.0
2,5, 1, 5, 0, 4, 0.00,60.00,Thursday       
103,2887426.89452105
134,0.0
2,5, 1, 5, 0, 5, 0.00,60.00,Thursday       
103,2915272.16764414
134,0.0
2,5, 1, 5, 0, 6, 0.00,60.00,Thursday       
103,2857997.71710532
134,0.0
2,5, 1, 5, 0, 7, 0.00,60.00,Thursday       
103,2397463.47431078
134,0.0
2,5, 1, 5, 0, 8, 0.00,60.00,Thursday       
103,6283018.09500392
134,0.0
2,5, 1, 5, 0, 9, 0.00,60.00,Thursday       
103,3592914.27864758
134,0.0
2,5, 1, 5, 0,10, 0.00,60.00,Thursday       
103,3001943.3078654
134,0.0
2,5, 1, 5, 0,11, 0.00,60.00,Thursday       
103,2466555.69401437
134,0.0
2,5, 1, 5, 0,12, 0.00,60.00,Thursday       
103,2115284.13108893
134,0.0
2,5, 1, 5, 0,13, 0.00,60.00,Thursday       
103,1984378.77605134
134,0.0
2,5, 1, 5, 0,14, 0.00,60.00,Thursday       
103,1997729.34041564
134,0.0
2,5, 1, 5, 0,15, 0.00,60.00,Thursday       
103,2155702.4752218
134,0.0
2,5, 1, 5, 0,16, 0.00,60.00,Thursday       
103,2437740.32160295
134,0.0
2,5, 1, 5, 0,17, 0.00,60.00,Thursday       
103,3036123.27570336
134,0.0
2,5, 1, 5, 0,18, 0.00,60.00,Thursday       
103,3449352.02212338
134,0.0
2,5, 1, 5, 0,19, 0.00,60.00,Thursday       
103,779803.22501659
134,0.0
2,5, 1, 5, 0,20, 0.00,60.00,Thursday       
103,2165284.26716348
134,0.0
2,5, 1, 5, 0,21, 0.00,60.00,Thursday       
103,2559159.36910505
134,0.0
2,5, 1, 5, 0,22, 0.00,60.00,Thursday       
103,2783508.74182039
134,0.0
2,5, 1, 5, 0,23, 0.00,60.00,Thursday       
103,3507013.02198946
134,0.0
2,5, 1, 5, 0,24, 0.00,60.00,Thursday       
103,3533235.73049183
134,0.0
2,6, 1, 6, 0, 1, 0.00,60.00,Friday         
103,3568892.42573374
134,0.0
2,6, 1, 6, 0, 2, 0.00,60.00,Friday         
103,3513580.24731428
134,0.0
2,6, 1, 6, 0, 3, 0.00,60.00,Friday         
103,3492567.77184875
134,0.0
2,6, 1, 6, 0, 4, 0.00,60.00,Friday         
103,3504970.75198822
134,0.0
2,6, 1, 6, 0, 5, 0.00,60.00,Friday         
103,3480748.10959858
134,0.0
2,6, 1, 6, 0, 6, 0.00,60.00,Friday         
103,3452778.71090163
134,0.0
2,6, 1, 6, 0, 7, 0.00,60.00,Friday         
103,2917620.38377651
134,0.0
2,6, 1, 6, 0, 8, 0.00,60.00,Friday         
103,6339556.19703332
134,0.0
2,6, 1, 6, 0, 9, 0.00,60.00,Friday         
103,4122925.01073508
134,0.0
2,6, 1, 6, 0,10, 0.00,60.00,Friday         
103,3370271.3661796
134,0.0
2,6, 1, 6, 0,11, 0.00,60.00,Friday         
103,2874657.54548599
134,0.0
2,6, 1, 6, 0,12, 0.00,60.00,Friday         
103,2512711.87345654
134,0.0
2,6, 1, 6, 0,13, 0.00,60.00,Friday         
103,2292284.4627375
134,0.0
2,6, 1, 6, 0,14, 0.00,60.00,Friday         
103,2210687.13751137
134,0.0
2,6, 1, 6, 0,15, 0.00,60.00,Friday         
103,2546866.58229118
134,0.0
2,6, 1, 6, 0,16, 0.00,60.00,Friday         
103,2833109.30291075
134,0.0
2,6, 1, 6, 0,17, 0.00,60.00,Friday         
103,2834908.0194956
134,0.0
2,6, 1, 6, 0,18, 0.00,60.00,Friday         
103,2990829.35900938
134,0.0
2,6, 1, 6, 0,19, 0.00,60.00,Friday         
103,414563.217744089
134,0.0
2,6, 1, 6, 0,20, 0.00,60.00,Friday         
103,1630530.15329205
134,0.0
2,6, 1, 6, 0,21, 0.00,60.00,Friday         
103,1946724.91157606
134,0.0
2,6, 1, 6, 0,22, 0.00,60.00,Friday         
103,1999071.64354106
134,0.0
2,6, 1, 6, 0,23, 0.00,60.00,Friday         
103,2217821.7387689
134,0.0
2,6, 1, 6, 0,24, 0.00,60.00,Friday         
103,2330030.20138678
134,0.0
2,7, 1, 7, 0, 1, 0.00,60.00,Saturday       
103,2392857.06873198
134,0.0
2,7, 1, 7, 0, 2, 0.00,60.00,Saturday       
103,2443769.81280916
134,0.0
2,7, 1, 7, 0, 3, 0.00,60.00,Saturday       
103,2443410.87844127
134,0.0
2,7, 1, 7, 0, 4, 0.00,60.00,Saturday       
103,2442305.56629353
134,0.0
2,7, 1, 7, 0, 5, 0.00,60.00,Saturday       
103,2585466.84510844
134,0.0
2,7, 1, 7, 0, 6, 0.00,60.00,Saturday       
103,2699779.13398377
134,0.0
2,7, 1, 7, 0, 7, 0.00,60.00,Saturday       
103,2465548.35436687
134,0.0
2,7, 1, 7, 0, 8, 0.00,60.00,Saturday       
103,5899941.03359117
134,0.0
2,7, 1, 7, 0, 9, 0.00,60.00,Saturday       
103,3737983.30028483
134,0.0
2,7, 1, 7, 0,10, 0.00,60.00,Saturday       
103,3091165.30682769
134,0.0
2,7, 1, 7, 0,11, 0.00,60.00,Saturday       
103,2717444.23617379
134,0.0
2,7, 1, 7, 0,12, 0.00,60.00,Saturday       
103,2500094.83436204
134,0.0
2,7, 1, 7, 0,13, 0.00,60.00,Saturday       
103,2365346.09965644
134,0.0
2,7, 1, 7, 0,14, 0.00,60.00,Saturday       
103,2301001.00178623
134,0.0
2,7, 1, 7, 0,15, 0.00,60.00,Saturday       
103,2579333.73113352
134,0.0
2,7, 1, 7, 0,16, 0.00,60.00,Saturday       
103,2834900.5673389
134,0.0
2,7, 1, 7, 0,17, 0.00,60.00,Saturday       
103,3101498.92065628
134,0.0
2,7, 1, 7, 0,18, 0.00,60.00,Saturday       
103,3331029.25849691
134,0.0
2,7, 1, 7, 0,19, 0.00,60.00,Saturday       
103,824078.770195544
134,0.0
2,7, 1, 7, 0,20, 0.00,60.00,Saturday       
103,2172666.48883922
134,0.0
2,7, 1, 7, 0,21, 0.00,60.00,Saturday       
103,2564899.28086593
134,0.0
2,7, 1, 7, 0,22, 0.00,60.00,Saturday       
103,2639010.22495274
134,0.0
2,7, 1, 7, 0,23, 0.00,60.00,Saturday       
103,2647065.75210648
134,0.0
2,7, 1, 7, 0,24, 0.00,60.00,Saturday       
103,2662488.24547679
134,0.0
2,8, 1, 8, 0, 1, 0.00,60.00,Sunday         
103,2665458.23834065
134,0.0
2,8, 1, 8, 0, 2, 0.00,60.00,Sunday         
103,2783690.86557308
134,0.0
2,8, 1, 8, 0, 3, 0.00,60.00,Sunday         
103,2986245.60599845
134,0.0
2,8, 1, 8, 0, 4, 0.00,60.00,Sunday         
103,3016068.80452247
134,0.0
2,8, 1, 8, 0, 5, 0.00,60.00,Sunday         
103,2939049.9341413
134,0.0
2,8, 1, 8, 0, 6, 0.00,60.00,Sunday         
103,2944492.50179896
134,0.0
2,8, 1, 8, 0, 7, 0.00,60.00,Sunday         
103,2938415.63131757
134,0.0
2,8, 1, 8, 0, 8, 0.00,60.00,Sunday         
103,6241377.3761611
134,0.0
2,8, 1, 8, 0, 9, 0.00,60.00,Sunday         
103,3919665.23486927
134,0.0
2,8, 1, 8, 0,10, 0.00,60.00,Sunday         
103,3268833.0993395
134,0.0
2,8, 1, 8, 0,11, 0.00,60.00,Sunday         
103,3314256.23539056
134,0.0
2,8, 1, 8, 0,12, 0.00,60.00,Sunday         
103,3493850.45514757
134,0.0
2,8, 1, 8, 0,13, 0.00,60.00,Sunday         
103,3521177.95094874
134,0.0
2,8, 1, 8, 0,14, 0.00,60.00,Sunday         
103,3585852.06006568
134,0.0
2,8, 1, 8, 0,15, 0.00,60.00,Sunday         
103,3545383.13700608
134,0.0
2,8, 1, 8, 0,16, 0.00,60.00,Sunday         
103,3504582.91699231
134,0.0
2,8, 1, 8, 0,17, 0.00,60.00,Sunday         
103,3524540.5749468
134,0.0
2,8, 1, 8, 0,18, 0.00,60.00,Sunday         
103,3465354.06205143
134,0.0
2,8, 1, 8, 0,19, 0.00,60.00,Sunday         
103,462191.606024748
134,0.0
2,8, 1, 8, 0,20, 0.00,60.00,Sunday         
103,1813867.08812756
134,0.0
2,8, 1, 8, 0,21, 0.00,60.00,Sunday         
103,2340976.87517458
134,0.0
2,8, 1, 8, 0,22, 0.00,60.00,Sunday         
103,2684014.17952966
134,0.0
2,8, 1, 8, 0,23, 0.00,60.00,Sunday         
103,2885697.45753498
134,0.0
2,8, 1, 8, 0,24, 0.00,60.00,Sunday         
103,3032403.95157611
134,0.0
2,9, 1, 9, 0, 1, 0.00,60.00,Monday         
103,3131792.6471421
134,0.0
2,9, 1, 9, 0, 2, 0.00,60.00,Monday         
103,3142791.573013
134,0.0
2,9, 1, 9, 0, 3, 0.00,60.00,Monday         
103,3167897.74501766
134,0.0
2,9, 1, 9, 0, 4, 0.00,60.00,Monday         
103,3136619.61763297
134,0.0
2,9, 1, 9, 0, 5, 0.00,60.00,Monday         
103,3241426.85349296
134,0.0
2,9, 1, 9, 0, 6, 0.00,60.00,Monday         
103,3242106.27210277
134,0.0
2,9, 1, 9, 0, 7, 0.00,60.00,Monday         
103,2795638.32265586
134,0.0
2,9, 1, 9, 0, 8, 0.00,60.00,Monday         
103,5944665.49182334
134,0.0
2,9, 1, 9, 0, 9, 0.00,60.00,Monday         
103,3751120.07777868
134,0.0
2,9, 1, 9, 0,10, 0.00,60.00,Monday         
103,3127967.58094887
134,0.0
2,9, 1, 9, 0,11, 0.00,60.00,Monday         
103,2632334.47771619
134,0.0
2,9, 1, 9, 0,12, 0.00,60.00,Monday         
103,2215457.17089822
134,0.0
2,9, 1, 9, 0,13, 0.00,60.00,Monday         
103,1883609.6798205
134,0.0
2,9, 1, 9, 0,14, 0.00,60.00,Monday         
103,1776995.89004935
134,0.0
2,9, 1, 9, 0,15, 0.00,60.00,Monday         
103,1850331.98698446
134,0.0
2,9, 1, 9, 0,16, 0.00,60.00,Monday         
103,2030981.84825855
134,0.0
2,9, 1, 9, 0,17, 0.00,60.00,Monday         
103,2208701.86008022
134,0.0
2,9, 1, 9, 0,18, 0.00,60.00,Monday         
103,2464804.81400376
134,0.0
2,9, 1, 9, 0,19, 0.00,60.00,Monday         
103,128800.725990374
134,0.0
2,9, 1, 9, 0,20, 0.00,60.00,Monday         
103,1247038.61812468
134,0.0
2,9, 1, 9, 0,21, 0.00,60.00,Monday         
103,1744481.13592845
134,0.0
2,9, 1, 9, 0,22, 0.00,60.00,Monday         
103,1871103.01333958
134,0.0
2,9, 1, 9, 0,23, 0.00,60.00,Monday         
103,2331850.64994209
134,0.0
2,9, 1, 9, 0,24, 0.00,60.00,Monday         
103,2298145.48506305
134,0.0
2,10, 1,10, 0, 1, 0.00,60.00,Tuesday        
103,2141033.13029
134,0.0
2,10, 1,10, 0, 2, 0.00,60.00,Tuesday        
103,1977264.38091924
134,0.0
2,10, 1,10, 0, 3, 0.00,60.00,Tuesday        
103,1889310.52258042
134,0.0
2,10, 1,10, 0, 4, 0.00,60.00,Tuesday        
103,1974300.7831954
134,0.0
2,10, 1,10, 0, 5, 0.00,60.00,Tuesday        
103,2156624.99175867
134,0.0
2,10, 1,10, 0, 6, 0.00,60.00,Tuesday        
103,2177838.79817867
134,0.0
2,10, 1,10, 0, 7, 0.00,60.00,Tuesday        
103,1945048.27434565
134,0.0
2,10, 1,10, 0, 8, 0.00,60.00,Tuesday        
103,5833273.20094257
134,0.0
2,10, 1,10, 0, 9, 0.00,60.00,Tuesday        
103,3213436.37121593
134,0.0
2,10, 1,10, 0,10, 0.00,60.00,Tuesday        
103,2691382.38435882
134,0.0
2,10, 1,10, 0,11, 0.00,60.00,Tuesday        
103,2331942.93193179
134,0.0
2,10, 1,10, 0,12, 0.00,60.00,Tuesday        
103,2090826.83810704
134,0.0
2,10, 1,10, 0,13, 0.00,60.00,Tuesday        
103,2075295.35307125
134,0.0
2,10, 1,10, 0,14, 0.00,60.00,Tuesday        
103,2150517.42673077
134,0.0
2,10, 1,10, 0,15, 0.00,60.00,Tuesday        
103,2263950.50566339
134,0.0
2,10, 1,10, 0,16, 0.00,60.00,Tuesday        
103,2492034.36528224
134,0.0
2,10, 1,10, 0,17, 0.00,60.00,Tuesday        
103,2742241.01132734
134,0.0
2,10, 1,10, 0,18, 0.00,60.00,Tuesday        
103,2900213.67270034
134,0.0
2,10, 1,10, 0,19, 0.00,60.00,Tuesday        
103,409246.530725028
134,0.0
2,10, 1,10, 0,20, 0.00,60.00,Tuesday        
103,1560347.53116278
134,0.0
2,10, 1,10, 0,21, 0.00,60.00,Tuesday        
103,2053920.40580066
134,0.0
2,10, 1,10, 0,22, 0.00,60.00,Tuesday        
103,2281653.25622837
134,0.0
2,10, 1,10, 0,23, 0.00,60.00,Tuesday        
103,2731249.91522021
134,0.0
2,10, 1,10, 0,24, 0.00,60.00,Tuesday        
103,2920339.71592118
134,0.0
2,11, 1,11, 0, 1, 0.00,60.00,Wednesday      
103,2977099.37342699
134,0.0
2,11, 1,11, 0, 2, 0.00,60.00,Wednesday      
103,2969830.93218629
134,0.0
2,11, 1,11, 0, 3, 0.00,60.00,Wednesday      
103,2909770.60127506
134,0.0
2,11, 1,11, 0, 4, 0.00,60.00,Wednesday      
103,2843754.12108647
134,0.0
2,11, 1,11, 0, 5, 0.00,60.00,Wednesday      
103,2739928.05041029
134,0.0
2,11, 1,11, 0, 6, 0.00,60.00,Wednesday      
103,2639920.27017753
134,0.0
2,11, 1,11, 0, 7, 0.00,60.00,Wednesday      
103,2322631.35905903
134,0.0
2,11, 1,11, 0, 8, 0.00,60.00,Wednesday      
103,6253251.65439384
134,0.0
2,11, 1,11, 0, 9, 0.00,60.00,Wednesday      
103,3815853.08516774
134,0.0
2,11, 1,11, 0,10, 0.00,60.00,Wednesday      
103,3237237.44929166
134,0.0
2,11, 1,11, 0,11, 0.00,60.00,Wednesday      
103,3018230.18123262
134,0.0
2,11, 1,11, 0,12, 0.00,60.00,Wednesday      
103,2996853.25257905
134,0.0
2,11, 1,11, 0,13, 0.00,60.00,Wednesday      
103,2714031.34723965
134,0.0
2,11, 1,11, 0,14, 0.00,60.00,Wednesday      
103,2527434.80838617
134,0.0
2,11, 1,11, 0,15, 0.00,60.00,Wednesday      
103,2566132.28843699
134,0.0
2,11, 1,11, 0,16, 0.00,60.00,Wednesday      
103,2701693.35936377
134,0.0
2,11, 1,11, 0,17, 0.00,60.00,Wednesday      
103,3037781.18498098
134,0.0
2,11, 1,11, 0,18, 0.00,60.00,Wednesday      
103,3277106.48474684
134,0.0
2,11, 1,11, 0,19, 0.00,60.00,Wednesday      
103,699337.719849226
134,0.0
2,11, 1,11, 0,20, 0.00,60.00,Wednesday      
103,2103793.85076495
134,0.0
2,11, 1,11, 0,21, 0.00,60.00,Wednesday      
103,2576196.62046615
134,0.0
2,11, 1,11, 0,22, 0.00,60.00,Wednesday      
103,2799913.05888253
134,0.0
2,11, 1,11, 0,23, 0.00,60.00,Wednesday      
103,3040662.37082332
134,0.0
2,11, 1,11, 0,24, 0.00,60.00,Wednesday      
103,3332236.47509347
134,0.0
2,12, 1,12, 0, 1, 0.00,60.00,Thursday       
103,3386683.63604993
134,0.0
2,12, 1,12, 0, 2, 0.00,60.00,Thursday       
103,3265754.96855844
134,0.0
2,12, 1,12, 0, 3, 0.00,60.00,Thursday       
103,3213357.15893735
134,0.0
2,12, 1,12, 0, 4, 0.00,60.00,Thursday       
103,3234649.2785838
134,0.0
2,12, 1,12, 0, 5, 0.00,60.00,Thursday       
103,3353697.26014181
134,0.0
2,12, 1,12, 0, 6, 0.00,60.00,Thursday       
103,3280863.22492162
134,0.0
2,12, 1,12, 0, 7, 0.00,60.00,Thursday       
103,3188973.52625288
134,0.0
2,12, 1,12, 0, 8, 0.00,60.00,Thursday       
103,6661763.97885711
134,0.0
2,12, 1,12, 0, 9, 0.00,60.00,Thursday       
103,4432498.52851136
134,0.0
2,12, 1,12, 0,10, 0.00,60.00,Thursday       
103,3841774.69013623
134,0.0
2,12, 1,12, 0,11, 0.00,60.00,Thursday       
103,3359695.10150939
134,0.0
2,12, 1,12, 0,12, 0.00,60.00,Thursday       
103,2867369.00280403
134,0.0
2,12, 1,12, 0,13, 0.00,60.00,Thursday       
103,2446603.24128274
134,0.0
2,12, 1,12, 0,14, 0.00,60.00,Thursday       
103,2298886.48242021
134,0.0
2,12, 1,12, 0,15, 0.00,60.00,Thursday       
103,2413135.6282788
134,0.0
2,12, 1,12, 0,16, 0.00,60.00,Thursday       
103,2611567.8599987
134,0.0
2,12, 1,12, 0,17, 0.00,60.00,Thursday       
103,2895193.498521
134,0.0
2,12, 1,12, 0,18, 0.00,60.00,Thursday       
103,3142306.81043959
134,0.0
2,12, 1,12, 0,19, 0.00,60.00,Thursday       
103,670872.21934489
134,0.0
2,12, 1,12, 0,20, 0.00,60.00,Thursday       
103,1990898.89139945
134,0.0
2,12, 1,12, 0,21, 0.00,60.00,Thursday       
103,2436789.32900493
134,0.0
2,12, 1,12, 0,22, 0.00,60.00,Thursday       
103,2722953.23421382
134,0.0
2,12, 1,12, 0,23, 0.00,60.00,Thursday       
103,3150080.8489117
134,0.0
2,12, 1,12, 0,24, 0.00,60.00,Thursday       
103,3285308.62382477
134,0.0
2,13, 1,13, 0, 1, 0.00,60.00,Friday         
103,3451018.10462141
134,0.0
2,13, 1,13, 0, 2, 0.00,60.00,Friday         
103,3611656.57607302
134,0.0
2,13, 1,13, 0, 3, 0.00,60.00,Friday         
103,3694406.31956631
134,0.0
2,13, 1,13, 0, 4, 0.00,60.00,Friday         
103,3773734.98831142
134,0.0
2,13, 1,13, 0, 5, 0.00,60.00,Friday         
103,3813167.37041071
134,0.0
2,13, 1,13, 0, 6, 0.00,60.00,Friday         
103,3862217.63080144
134,0.0
2,13, 1,13, 0, 7, 0.00,60.00,Friday         
103,3745774.10794406
134,0.0
2,13, 1,13, 0, 8, 0.00,60.00,Friday         
103,7089708.30130504
134,0.0
2,13, 1,13, 0, 9, 0.00,60.00,Friday         
103,4717839.05554976
134,0.0
2,13, 1,13, 0,10, 0.00,60.00,Friday         
103,3993508.62287952
134,0.0
2,13, 1,13, 0,11, 0.00,60.00,Friday         
103,3539178.0461237
134,0.0
2,13, 1,13, 0,12, 0.00,60.00,Friday         
103,3194606.17407506
134,0.0
2,13, 1,13, 0,13, 0.00,60.00,Friday         
103,2950428.39456279
134,0.0
2,13, 1,13, 0,14, 0.00,60.00,Friday         
103,2794563.031524
134,0.0
2,13, 1,13, 0,15, 0.00,60.00,Friday         
103,2778897.06274179
134,0.0
2,13, 1,13, 0,16, 0.00,60.00,Friday         
103,2932980.27181809
134,0.0
2,13, 1,13, 0,17, 0.00,60.00,Friday         
103,3220986.74867013
134,0.0
2,13, 1,13, 0,18, 0.00,60.00,Friday         
103,3471082.51877599
134,0.0
2,13, 1,13, 0,19, 0.00,60.00,Friday         
103,1067556.86436591
134,0.0
2,13, 1,13, 0,20, 0.00,60.00,Friday         
103,2647892.77690769
134,0.0
2,13, 1,13, 0,21, 0.00,60.00,Friday         
103,3161926.41842788
134,0.0
2,13, 1,13, 0,22, 0.00,60.00,Friday         
103,3468057.0880767
134,0.0
2,13, 1,13, 0,23, 0.00,60.00,Friday         
103,3739144.68482992
134,0.0
2,13, 1,13, 0,24, 0.00,60.00,Friday         
103,3822010.14582896
134,0.0
2,14, 1,14, 0, 1, 0.00,60.00,Saturday       
103,3932661.48962986
134,0.0
2,14, 1,14, 0, 2, 0.00,60.00,Saturday       
103,3903670.14209589
134,0.0
2,14, 1,14, 0, 3, 0.00,60.00,Saturday       
103,3968786.61610033
134,0.0
2,14, 1,14, 0, 4, 0.00,60.00,Saturday       
103,3845725.67710773
134,0.0
2,14, 1,14, 0, 5, 0.00,60.00,Saturday       
103,3554633.74385266
134,0.0
2,14, 1,14, 0, 6, 0.00,60.00,Saturday       
103,3499005.0951408
134,0.0
2,14, 1,14, 0, 7, 0.00,60.00,Saturday       
103,3720943.8923588
134,0.0
2,14, 1,14, 0, 8, 0.00,60.00,Saturday       
103,7314985.33485995
134,0.0
2,14, 1,14, 0, 9, 0.00,60.00,Saturday       
103,4816884.06281353
134,0.0
2,14, 1,14, 0,10, 0.00,60.00,Saturday       
103,3858632.50885507
134,0.0
2,14, 1,14, 0,11, 0.00,60.00,Saturday       
103,3348337.20096378
134,0.0
2,14, 1,14, 0,12, 0.00,60.00,Saturday       
103,3064832.58126485
134,0.0
2,14, 1,14, 0,13, 0.00,60.00,Saturday       
103,2905952.51233064
134,0.0
2,14, 1,14, 0,14, 0.00,60.00,Saturday       
103,2872748.69541978
134,0.0
2,14, 1,14, 0,15, 0.00,60.00,Saturday       
103,2913369.4610032
134,0.0
2,14, 1,14, 0,16, 0.00,60.00,Saturday       
103,3118418.92094222
134,0.0
2,14, 1,14, 0,17, 0.00,60.00,Saturday       
103,3477203.02625263
134,0.0
2,14, 1,14, 0,18, 0.00,60.00,Saturday       
103,3741195.62738146
134,0.0
2,14, 1,14, 0,19, 0.00,60.00,Saturday       
103,1592577.92325646
134,0.0
2,14, 1,14, 0,20, 0.00,60.00,Saturday       
103,3265605.74407726
134,0.0
2,14, 1,14, 0,21, 0.00,60.00,Saturday       
103,3449182.25318381
134,0.0
2,14, 1,14, 0,22, 0.00,60.00,Saturday       
103,3535814.53081493
134,0.0
2,14, 1,14, 0,23, 0.00,60.00,Saturday       
103,3805098.04439064
134,0.0
2,14, 1,14, 0,24, 0.00,60.00,Saturday       
103,3913632.85605712
134,0.0
2,15, 1,15, 0, 1, 0.00,60.00,Sunday         
103,3843048.48207639
134,0.0
2,15, 1,15, 0, 2, 0.00,60.00,Sunday         
103,3817221.59094263
134,0.0
2,15, 1,15, 0, 3, 0.00,60.00,Sunday         
103,3892257.03540656
134,0.0
2,15, 1,15, 0, 4, 0.00,60.00,Sunday         
103,3781078.10903396
134,0.0
2,15, 1,15, 0, 5, 0.00,60.00,Sunday         
103,3803044.40241142
134,0.0
2,15, 1,15, 0, 6, 0.00,60.00,Sunday         
103,3953068.47639327
134,0.0
2,15, 1,15, 0, 7, 0.00,60.00,Sunday         
103,4020847.20777859
134,0.0
2,15, 1,15, 0, 8, 0.00,60.00,Sunday         
103,7515746.50184197
134,0.0
2,15, 1,15, 0, 9, 0.00,60.00,Sunday         
103,5265812.18078664
134,0.0
2,15, 1,15, 0,10, 0.00,60.00,Sunday         
103,4547952.17856751
134,0.0
2,15, 1,15, 0,11, 0.00,60.00,Sunday         
103,4031726.29609695
134,0.0
2,15, 1,15, 0,12, 0.00,60.00,Sunday         
103,3668001.20727653
134,0.0
2,15, 1,15, 0,13, 0.00,60.00,Sunday         
103,3398795.22562048
134,0.0
2,15, 1,15, 0,14, 0.00,60.00,Sunday         
103,3273272.14254357
134,0.0
2,15, 1,15, 0,15, 0.00,60.00,Sunday         
103,3202787.71067556
134,0.0
2,15, 1,15, 0,16, 0.00,60.00,Sunday         
103,3314673.35394034
134,0.0
2,15, 1,15, 0,17, 0.00,60.00,Sunday         
103,3629233.63198972
134,0.0
2,15, 1,15, 0,18, 0.00,60.00,Sunday         
103,3854673.03457387
134,0.0
2,15, 1,15, 0,19, 0.00,60.00,Sunday         
103,1207263.8641107
134,0.0
2,15, 1,15, 0,20, 0.00,60.00,Sunday         
103,2910271.36343903
134,0.0
2,15, 1,15, 0,21, 0.00,60.00,Sunday         
103,3466534.84279696
134,0.0
2,15, 1,15, 0,22, 0.00,60.00,Sunday         
103,3695686.45944357
134,0.0
2,15, 1,15, 0,23, 0.00,60.00,Sunday         
103,3666322.75929874
134,0.0
2,15, 1,15, 0,24, 0.00,60.00,Sunday         
103,3754823.30984624
134,0.0
2,16, 1,16, 0, 1, 0.00,60.00,Monday         
103,3888613.86519248
134,0.0
2,16, 1,16, 0, 2, 0.00,60.00,Monday         
103,3867134.3628267
134,0.0
2,16, 1,16, 0, 3, 0.00,60.00,Monday         
103,3988489.12634478
134,0.0
2,16, 1,16, 0, 4, 0.00,60.00,Monday         
103,4081639.95197397
134,0.0
2,16, 1,16, 0, 5, 0.00,60.00,Monday         
103,3983461.42522988
134,0.0
2,16, 1,16, 0, 6, 0.00,60.00,Monday         
103,3947100.1999964
134,0.0
2,16, 1,16, 0, 7, 0.00,60.00,Monday         
103,3811217.55637628
134,0.0
2,16, 1,16, 0, 8, 0.00,60.00,Monday         
103,7233336.31299244
134,0.0
2,16, 1,16, 0, 9, 0.00,60.00,Monday         
103,4860202.55147042
134,0.0
2,16, 1,16, 0,10, 0.00,60.00,Monday         
103,4035214.87110955
134,0.0
2,16, 1,16, 0,11, 0.00,60.00,Monday         
103,3471398.81405533
134,0.0
2,16, 1,16, 0,12, 0.00,60.00,Monday         
103,3084078.32163331
134,0.0
2,16, 1,16, 0,13, 0.00,60.00,Monday         
103,2703803.90212414
134,0.0
2,16, 1,16, 0,14, 0.00,60.00,Monday         
103,2426062.90162788
134,0.0
2,16, 1,16, 0,15, 0.00,60.00,Monday         
103,2396566.81987505
134,0.0
2,16, 1,16, 0,16, 0.00,60.00,Monday         
103,2581766.12505312
134,0.0
2,16, 1,16, 0,17, 0.00,60.00,Monday         
103,2950384.95666057
134,0.0
2,16, 1,16, 0,18, 0.00,60.00,Monday         
103,3329372.07219438
134,0.0
2,16, 1,16, 0,19, 0.00,60.00,Monday         
103,952738.16966034
134,0.0
2,16, 1,16, 0,20, 0.00,60.00,Monday         
103,2491554.78469679
134,0.0
2,16, 1,16, 0,21, 0.00,60.00,Monday         
103,2887940.4470028
134,0.0
2,16, 1,16, 0,22, 0.00,60.00,Monday         
103,2968457.2698636
134,0.0
2,16, 1,16, 0,23, 0.00,60.00,Monday         
103,3256701.62530185
134,0.0
2,16, 1,16, 0,24, 0.00,60.00,Monday         
103,3166682.60049009
134,0.0
2,17, 1,17, 0, 1, 0.00,60.00,Tuesday        
103,3107611.73295745
134,0.0
2,17, 1,17, 0, 2, 0.00,60.00,Tuesday        
103,3093427.1970019
134,0.0
2,17, 1,17, 0, 3, 0.00,60.00,Tuesday        
103,2956268.34691657
134,0.0
2,17, 1,17, 0, 4, 0.00,60.00,Tuesday        
103,2815440.15215013
134,0.0
2,17, 1,17, 0, 5, 0.00,60.00,Tuesday        
103,2804551.8176237
134,0.0
2,17, 1,17, 0, 6, 0.00,60.00,Tuesday        
103,2841125.61731054
134,0.0
2,17, 1,17, 0, 7, 0.00,60.00,Tuesday        
103,2561700.6814376
134,0.0
2,17, 1,17, 0, 8, 0.00,60.00,Tuesday        
103,5855477.56889131
134,0.0
2,17, 1,17, 0, 9, 0.00,60.00,Tuesday        
103,3607888.26140325
134,0.0
2,17, 1,17, 0,10, 0.00,60.00,Tuesday        
103,3210851.61871791
134,0.0
2,17, 1,17, 0,11, 0.00,60.00,Tuesday        
103,3121719.29247819
134,0.0
2,17, 1,17, 0,12, 0.00,60.00,Tuesday        
103,3030256.43965916
134,0.0